<?xml version="1.0" encoding="ISO-8859-1"?>
<modeling>
 <generator>
  <i name="program" type="string">vasp </i>
  <i name="version" type="string">5.4.4.18Apr17-6-g9f103f2a35  </i>
  <i name="subversion" type="string">(build Jun 07 2020 16:50:00) complex            parallel </i>
  <i name="platform" type="string">LinuxIFC </i>
  <i name="date" type="string">2023 02 14 </i>
  <i name="time" type="string">16:35:15 </i>
 </generator>
 <incar>
  <i type="string" name="SYSTEM">Simulation for cell shape cell volume r</i>
  <i type="int" name="ISTART">     1</i>
  <i type="string" name="PREC">high</i>
  <i type="string" name="ALGO">48</i>
  <i type="int" name="ICHARG">    11</i>
  <i type="int" name="NELM">   200</i>
  <i type="int" name="IBRION">    -1</i>
  <i name="EDIFF">      0.00001000</i>
  <i name="EDIFFG">     -0.01000000</i>
  <i type="int" name="NSW">     0</i>
  <i type="int" name="ISIF">     2</i>
  <i name="ENCUT">    500.00000000</i>
  <i name="POTIM">      0.30000000</i>
  <i type="string" name="LREAL">A</i>
  <i type="int" name="ISMEAR">     0</i>
  <i name="SIGMA">      0.01000000</i>
  <i type="int" name="NWRITE">     0</i>
  <i type="logical" name="LWAVE"> F  </i>
  <i type="logical" name="LCHARG"> F  </i>
  <v type="int" name="KPOINT_BSE">    -1     0     0     0</v>
  <i type="int" name="NELM">   200</i>
  <i type="string" name="GGA">PE</i>
 </incar>
 <structure name="primitive_cell" >
  <crystal>
   <varray name="basis" >
    <v>      22.59017342       0.02015329       0.00000000 </v>
    <v>     -11.27767062      19.52775310       0.00000000 </v>
    <v>       0.00000000       0.00000000      20.00000000 </v>
   </varray>
   <i name="volume">   8827.25222288 </i>
   <varray name="rec_basis" >
    <v>       0.04424424       0.02555194       0.00000000 </v>
    <v>      -0.00004566       0.05118280       0.00000000 </v>
    <v>       0.00000000       0.00000000       0.05000000 </v>
   </varray>
  </crystal>
  <varray name="positions" >
   <v>       0.43169631      -0.42770527      -0.48557799 </v>
   <v>       0.46460511      -0.37666588      -0.48958050 </v>
   <v>       0.36411762      -0.44723038      -0.47710778 </v>
   <v>       0.46203943      -0.46850413      -0.49343505 </v>
   <v>       0.31767271       0.49246121      -0.47265283 </v>
   <v>      -0.46697512      -0.43459807       0.49619344 </v>
   <v>       0.34893779      -0.38933239      -0.47513078 </v>
   <v>       0.42532558       0.45956479      -0.49209313 </v>
   <v>      -0.43801102      -0.37868197       0.49519573 </v>
   <v>       0.45324344      -0.30085924      -0.47254929 </v>
   <v>       0.37043901       0.43278023      -0.48410497 </v>
   <v>       0.39832236      -0.31985567      -0.47410626 </v>
   <v>       0.27968719      -0.40821887      -0.47582924 </v>
   <v>      -0.43230160      -0.47039699       0.48709121 </v>
   <v>       0.45999998       0.42376736       0.49879822 </v>
   <v>       0.24377718      -0.46325245      -0.47589000 </v>
   <v>      -0.46901270       0.45768896       0.48844680 </v>
   <v>       0.37941770      -0.26939673      -0.47466536 </v>
   <v>      -0.37742686      -0.44365881       0.47905968 </v>
   <v>       0.43104488       0.36784317       0.49978077 </v>
   <v>       0.25968663      -0.35870933      -0.47625664 </v>
   <v>       0.49733384      -0.18268234      -0.46986604 </v>
   <v>       0.31005174      -0.28936829      -0.47537759 </v>
   <v>       0.43726537      -0.19636529      -0.47597380 </v>
   <v>      -0.43865939       0.41690988       0.48063456 </v>
   <v>       0.15618008      -0.47479723      -0.48866580 </v>
   <v>      -0.47155536       0.36588464       0.48486371 </v>
   <v>       0.29105595      -0.25334051      -0.47499468 </v>
   <v>       0.18682057      -0.37364501      -0.47919349 </v>
   <v>       0.41803371      -0.14814760      -0.48579982 </v>
   <v>       0.13850843      -0.44138103      -0.48650253 </v>
   <v>      -0.32475032       0.49652721       0.46638392 </v>
   <v>      -0.37120502       0.43628922       0.47145948 </v>
   <v>       0.36717166      -0.16613142      -0.49085005 </v>
   <v>      -0.44271629      -0.07056152      -0.48366937 </v>
   <v>       0.17325079      -0.32686175      -0.47626350 </v>
   <v>       0.05639635       0.42774297       0.49786423 </v>
   <v>       0.45897110      -0.07700736      -0.49357133 </v>
   <v>       0.06750121      -0.47147235      -0.49423901 </v>
   <v>      -0.46923641      -0.04215872      -0.49192598 </v>
   <v>      -0.46058176       0.28994383       0.46818014 </v>
   <v>      -0.35619731       0.37827295       0.46948086 </v>
   <v>       0.02991508       0.45716446       0.49743015 </v>
   <v>      -0.40568015       0.30882809       0.46910597 </v>
   <v>       0.42539210      -0.03954931       0.49573481 </v>
   <v>      -0.25097648       0.45203231       0.46898397 </v>
   <v>       0.03289269      -0.43416301      -0.49469430 </v>
   <v>       0.36957976      -0.06620701       0.49450263 </v>
   <v>       0.06140724      -0.37898922      -0.48824912 </v>
   <v>      -0.28699699       0.39702562       0.46947166 </v>
   <v>      -0.43325525       0.02832223       0.49896108 </v>
   <v>      -0.04046117       0.42271220       0.48852255 </v>
   <v>      -0.37744595       0.05499206      -0.49978223 </v>
   <v>      -0.38694639       0.25824828       0.46953365 </v>
   <v>       0.49495741       0.17182746       0.46654062 </v>
   <v>      -0.06894237       0.36754007       0.48204284 </v>
   <v>       0.46137803       0.03094305       0.48663613 </v>
   <v>      -0.03749460      -0.46862099       0.49642238 </v>
   <v>      -0.46682845       0.06579147       0.48829343 </v>
   <v>      -0.26717560       0.34739214       0.46984730 </v>
   <v>      -0.07507961       0.46001323       0.48801089 </v>
   <v>      -0.44493858       0.18531079       0.47148219 </v>
   <v>      -0.16379148       0.46324773       0.48307751 </v>
   <v>      -0.31761216       0.27807633       0.46955287 </v>
   <v>       0.43484128       0.05934075       0.47843730 </v>
   <v>      -0.06392331      -0.43914230       0.49603481 </v>
   <v>      -0.42580910       0.13691229       0.48043016 </v>
   <v>      -0.14609694       0.42989224       0.48020232 </v>
   <v>      -0.19435442       0.36224379       0.47221032 </v>
   <v>      -0.37490312       0.15468061       0.48456084 </v>
   <v>      -0.29866490       0.24200194       0.46911154 </v>
   <v>      -0.18081914       0.31548138       0.46835216 </v>
  </varray>
 </structure>
 <varray name="primitive_index" >
  <v type="int" >        1 </v>
  <v type="int" >       51 </v>
  <v type="int" >       33 </v>
  <v type="int" >       23 </v>
  <v type="int" >       70 </v>
  <v type="int" >       21 </v>
  <v type="int" >       32 </v>
  <v type="int" >       36 </v>
  <v type="int" >       50 </v>
  <v type="int" >       46 </v>
  <v type="int" >       59 </v>
  <v type="int" >       17 </v>
  <v type="int" >       18 </v>
  <v type="int" >       22 </v>
  <v type="int" >       35 </v>
  <v type="int" >       47 </v>
  <v type="int" >       34 </v>
  <v type="int" >       16 </v>
  <v type="int" >       49 </v>
  <v type="int" >       58 </v>
  <v type="int" >       14 </v>
  <v type="int" >       72 </v>
  <v type="int" >       15 </v>
  <v type="int" >       20 </v>
  <v type="int" >        4 </v>
  <v type="int" >       54 </v>
  <v type="int" >       60 </v>
  <v type="int" >       48 </v>
  <v type="int" >       19 </v>
  <v type="int" >        3 </v>
  <v type="int" >        2 </v>
  <v type="int" >       67 </v>
  <v type="int" >       31 </v>
  <v type="int" >       57 </v>
  <v type="int" >       65 </v>
  <v type="int" >       71 </v>
  <v type="int" >       53 </v>
  <v type="int" >       29 </v>
  <v type="int" >       26 </v>
  <v type="int" >       42 </v>
  <v type="int" >       43 </v>
  <v type="int" >       30 </v>
  <v type="int" >       24 </v>
  <v type="int" >       10 </v>
  <v type="int" >       27 </v>
  <v type="int" >       44 </v>
  <v type="int" >       39 </v>
  <v type="int" >       56 </v>
  <v type="int" >       62 </v>
  <v type="int" >       11 </v>
  <v type="int" >       41 </v>
  <v type="int" >       25 </v>
  <v type="int" >       64 </v>
  <v type="int" >        9 </v>
  <v type="int" >       69 </v>
  <v type="int" >       52 </v>
  <v type="int" >       28 </v>
  <v type="int" >       38 </v>
  <v type="int" >       40 </v>
  <v type="int" >        7 </v>
  <v type="int" >       37 </v>
  <v type="int" >       13 </v>
  <v type="int" >       63 </v>
  <v type="int" >        8 </v>
  <v type="int" >       55 </v>
  <v type="int" >       61 </v>
  <v type="int" >        6 </v>
  <v type="int" >        5 </v>
  <v type="int" >       12 </v>
  <v type="int" >       66 </v>
  <v type="int" >       45 </v>
  <v type="int" >       68 </v>
 </varray>
 <kpoints>
  <generation param="listgenerated">
   <i name="divisions" type="int">      20 </i>
   <v>       0.00000000       0.00000000       0.00000000 </v>
   <v>       0.50000000       0.00000000       0.00000000 </v>
   <v>       0.33333333       0.33333333       0.00000000 </v>
   <v>       0.00000000       0.00000000       0.00000000 </v>
  </generation>
  <varray name="kpointlist" >
   <v>       0.00000000       0.00000000       0.00000000 </v>
   <v>       0.02631579       0.00000000       0.00000000 </v>
   <v>       0.05263158       0.00000000       0.00000000 </v>
   <v>       0.07894737       0.00000000       0.00000000 </v>
   <v>       0.10526316       0.00000000       0.00000000 </v>
   <v>       0.13157895       0.00000000       0.00000000 </v>
   <v>       0.15789474       0.00000000       0.00000000 </v>
   <v>       0.18421053       0.00000000       0.00000000 </v>
   <v>       0.21052632       0.00000000       0.00000000 </v>
   <v>       0.23684211       0.00000000       0.00000000 </v>
   <v>       0.26315789       0.00000000       0.00000000 </v>
   <v>       0.28947368       0.00000000       0.00000000 </v>
   <v>       0.31578947       0.00000000       0.00000000 </v>
   <v>       0.34210526       0.00000000       0.00000000 </v>
   <v>       0.36842105       0.00000000       0.00000000 </v>
   <v>       0.39473684       0.00000000       0.00000000 </v>
   <v>       0.42105263       0.00000000       0.00000000 </v>
   <v>       0.44736842       0.00000000       0.00000000 </v>
   <v>       0.47368421       0.00000000       0.00000000 </v>
   <v>       0.50000000       0.00000000       0.00000000 </v>
   <v>       0.50000000       0.00000000       0.00000000 </v>
   <v>       0.49122807       0.01754386       0.00000000 </v>
   <v>       0.48245614       0.03508772       0.00000000 </v>
   <v>       0.47368421       0.05263158       0.00000000 </v>
   <v>       0.46491228       0.07017544       0.00000000 </v>
   <v>       0.45614035       0.08771930       0.00000000 </v>
   <v>       0.44736842       0.10526316       0.00000000 </v>
   <v>       0.43859649       0.12280702       0.00000000 </v>
   <v>       0.42982456       0.14035088       0.00000000 </v>
   <v>       0.42105263       0.15789474       0.00000000 </v>
   <v>       0.41228070       0.17543860       0.00000000 </v>
   <v>       0.40350877       0.19298246       0.00000000 </v>
   <v>       0.39473684       0.21052632       0.00000000 </v>
   <v>       0.38596491       0.22807018       0.00000000 </v>
   <v>       0.37719298       0.24561404       0.00000000 </v>
   <v>       0.36842105       0.26315789       0.00000000 </v>
   <v>       0.35964912       0.28070175       0.00000000 </v>
   <v>       0.35087719       0.29824561       0.00000000 </v>
   <v>       0.34210526       0.31578947       0.00000000 </v>
   <v>       0.33333333       0.33333333       0.00000000 </v>
   <v>       0.33333333       0.33333333       0.00000000 </v>
   <v>       0.31578947       0.31578947       0.00000000 </v>
   <v>       0.29824561       0.29824561       0.00000000 </v>
   <v>       0.28070175       0.28070175       0.00000000 </v>
   <v>       0.26315789       0.26315789       0.00000000 </v>
   <v>       0.24561404       0.24561404       0.00000000 </v>
   <v>       0.22807018       0.22807018       0.00000000 </v>
   <v>       0.21052632       0.21052632       0.00000000 </v>
   <v>       0.19298246       0.19298246       0.00000000 </v>
   <v>       0.17543860       0.17543860       0.00000000 </v>
   <v>       0.15789474       0.15789474       0.00000000 </v>
   <v>       0.14035088       0.14035088       0.00000000 </v>
   <v>       0.12280702       0.12280702       0.00000000 </v>
   <v>       0.10526316       0.10526316       0.00000000 </v>
   <v>       0.08771930       0.08771930       0.00000000 </v>
   <v>       0.07017544       0.07017544       0.00000000 </v>
   <v>       0.05263158       0.05263158       0.00000000 </v>
   <v>       0.03508772       0.03508772       0.00000000 </v>
   <v>       0.01754386       0.01754386       0.00000000 </v>
   <v>       0.00000000       0.00000000       0.00000000 </v>
  </varray>
  <varray name="weights" >
   <v>       0.01666667 </v>
   <v>       0.01666667 </v>
   <v>       0.01666667 </v>
   <v>       0.01666667 </v>
   <v>       0.01666667 </v>
   <v>       0.01666667 </v>
   <v>       0.01666667 </v>
   <v>       0.01666667 </v>
   <v>       0.01666667 </v>
   <v>       0.01666667 </v>
   <v>       0.01666667 </v>
   <v>       0.01666667 </v>
   <v>       0.01666667 </v>
   <v>       0.01666667 </v>
   <v>       0.01666667 </v>
   <v>       0.01666667 </v>
   <v>       0.01666667 </v>
   <v>       0.01666667 </v>
   <v>       0.01666667 </v>
   <v>       0.01666667 </v>
   <v>       0.01666667 </v>
   <v>       0.01666667 </v>
   <v>       0.01666667 </v>
   <v>       0.01666667 </v>
   <v>       0.01666667 </v>
   <v>       0.01666667 </v>
   <v>       0.01666667 </v>
   <v>       0.01666667 </v>
   <v>       0.01666667 </v>
   <v>       0.01666667 </v>
   <v>       0.01666667 </v>
   <v>       0.01666667 </v>
   <v>       0.01666667 </v>
   <v>       0.01666667 </v>
   <v>       0.01666667 </v>
   <v>       0.01666667 </v>
   <v>       0.01666667 </v>
   <v>       0.01666667 </v>
   <v>       0.01666667 </v>
   <v>       0.01666667 </v>
   <v>       0.01666667 </v>
   <v>       0.01666667 </v>
   <v>       0.01666667 </v>
   <v>       0.01666667 </v>
   <v>       0.01666667 </v>
   <v>       0.01666667 </v>
   <v>       0.01666667 </v>
   <v>       0.01666667 </v>
   <v>       0.01666667 </v>
   <v>       0.01666667 </v>
   <v>       0.01666667 </v>
   <v>       0.01666667 </v>
   <v>       0.01666667 </v>
   <v>       0.01666667 </v>
   <v>       0.01666667 </v>
   <v>       0.01666667 </v>
   <v>       0.01666667 </v>
   <v>       0.01666667 </v>
   <v>       0.01666667 </v>
   <v>       0.01666667 </v>
  </varray>
 </kpoints>
 <parameters>
  <separator name="general" >
   <i type="string" name="SYSTEM">Simulation for cell shape cell volume r</i>
   <i type="logical" name="LCOMPAT"> F  </i>
  </separator>
  <separator name="electronic" >
   <i type="string" name="PREC">high</i>
   <i name="ENMAX">    500.00000000</i>
   <i name="ENAUG">    644.87300000</i>
   <i name="EDIFF">      0.00001000</i>
   <i type="int" name="IALGO">    38</i>
   <i type="int" name="IWAVPR">    10</i>
   <i type="int" name="NBANDS">   160</i>
   <i name="NELECT">    234.00000000</i>
   <i type="int" name="TURBO">     0</i>
   <i type="int" name="IRESTART">     0</i>
   <i type="int" name="NREBOOT">     0</i>
   <i type="int" name="NMIN">     0</i>
   <i name="EREF">      0.00000000</i>
   <separator name="electronic smearing" >
    <i type="int" name="ISMEAR">     0</i>
    <i name="SIGMA">      0.01000000</i>
    <i name="KSPACING">      0.50000000</i>
    <i type="logical" name="KGAMMA"> T  </i>
   </separator>
   <separator name="electronic projectors" >
    <i type="logical" name="LREAL"> T  </i>
    <v name="ROPT">     -0.00040000     -0.00040000     -0.00040000     -0.00040000</v>
    <i type="int" name="LMAXPAW">  -100</i>
    <i type="int" name="LMAXMIX">     2</i>
    <i type="logical" name="NLSPLINE"> F  </i>
   </separator>
   <separator name="electronic startup" >
    <i type="int" name="ISTART">     1</i>
    <i type="int" name="ICHARG">    11</i>
    <i type="int" name="INIWAV">     1</i>
   </separator>
   <separator name="electronic spin" >
    <i type="int" name="ISPIN">     1</i>
    <i type="logical" name="LNONCOLLINEAR"> F  </i>
    <v name="MAGMOM">      1.00000000      1.00000000      1.00000000      1.00000000      1.00000000      1.00000000      1.00000000      1.00000000      1.00000000      1.00000000      1.00000000      1.00000000      1.00000000      1.00000000      1.00000000      1.00000000      1.00000000      1.00000000      1.00000000      1.00000000
      1.00000000      1.00000000      1.00000000      1.00000000      1.00000000      1.00000000      1.00000000      1.00000000      1.00000000      1.00000000      1.00000000      1.00000000      1.00000000      1.00000000      1.00000000      1.00000000      1.00000000      1.00000000      1.00000000      1.00000000
      1.00000000      1.00000000      1.00000000      1.00000000      1.00000000      1.00000000      1.00000000      1.00000000      1.00000000      1.00000000      1.00000000      1.00000000      1.00000000      1.00000000      1.00000000      1.00000000      1.00000000      1.00000000      1.00000000      1.00000000
      1.00000000      1.00000000      1.00000000      1.00000000      1.00000000      1.00000000      1.00000000      1.00000000      1.00000000      1.00000000      1.00000000      1.00000000</v>
    <i name="NUPDOWN">     -1.00000000</i>
    <i type="logical" name="LSORBIT"> F  </i>
    <v name="SAXIS">      0.00000000      0.00000000      1.00000000</v>
    <i type="logical" name="LSPIRAL"> F  </i>
    <v name="QSPIRAL">      0.00000000      0.00000000      0.00000000</v>
    <i type="logical" name="LZEROZ"> F  </i>
   </separator>
   <separator name="electronic exchange-correlation" >
    <i type="logical" name="LASPH"> F  </i>
    <i type="logical" name="LMETAGGA"> F  </i>
   </separator>
   <separator name="electronic convergence" >
    <i type="int" name="NELM">   200</i>
    <i type="int" name="NELMDL">     0</i>
    <i type="int" name="NELMIN">     2</i>
    <i name="ENINI">    500.00000000</i>
    <separator name="electronic convergence detail" >
     <i type="logical" name="LDIAG"> T  </i>
     <i type="logical" name="LSUBROT"> F  </i>
     <i name="WEIMIN">      0.00000000</i>
     <i name="EBREAK">      0.00000002</i>
     <i name="DEPER">      0.30000000</i>
     <i type="int" name="NRMM">     4</i>
     <i name="TIME">      0.40000000</i>
    </separator>
   </separator>
   <separator name="electronic mixer" >
    <i name="AMIX">      0.40000000</i>
    <i name="BMIX">      1.00000000</i>
    <i name="AMIN">      0.10000000</i>
    <i name="AMIX_MAG">      1.60000000</i>
    <i name="BMIX_MAG">      1.00000000</i>
    <separator name="electronic mixer details" >
     <i type="int" name="IMIX">     4</i>
     <i type="logical" name="MIXFIRST"> F  </i>
     <i type="int" name="MAXMIX">   -45</i>
     <i name="WC">    100.00000000</i>
     <i type="int" name="INIMIX">     1</i>
     <i type="int" name="MIXPRE">     1</i>
     <i type="int" name="MREMOVE">     5</i>
    </separator>
   </separator>
   <separator name="electronic dipolcorrection" >
    <i type="logical" name="LDIPOL"> F  </i>
    <i type="logical" name="LMONO"> F  </i>
    <i type="int" name="IDIPOL">     0</i>
    <i name="EPSILON">      1.00000000</i>
    <v name="DIPOL">   -100.00000000   -100.00000000   -100.00000000</v>
    <i name="EFIELD">      0.00000000</i>
   </separator>
  </separator>
  <separator name="grids" >
   <i type="int" name="NGX">   168</i>
   <i type="int" name="NGY">   168</i>
   <i type="int" name="NGZ">   150</i>
   <i type="int" name="NGXF">   250</i>
   <i type="int" name="NGYF">   250</i>
   <i type="int" name="NGZF">   224</i>
   <i type="logical" name="ADDGRID"> F  </i>
  </separator>
  <separator name="ionic" >
   <i type="int" name="NSW">     0</i>
   <i type="int" name="IBRION">    -1</i>
   <i type="int" name="MDALGO">     0</i>
   <i type="int" name="ISIF">     2</i>
   <i name="PSTRESS">      0.00000000</i>
   <i name="EDIFFG">     -0.01000000</i>
   <i type="int" name="NFREE">     0</i>
   <i name="POTIM">      0.30000000</i>
   <i name="SMASS">     -3.00000000</i>
   <i name="SCALEE">      1.00000000</i>
  </separator>
  <separator name="ionic md" >
   <i name="TEBEG">      0.00010000</i>
   <i name="TEEND">      0.00010000</i>
   <i type="int" name="NBLOCK">     1</i>
   <i type="int" name="KBLOCK">     1</i>
   <i type="int" name="NPACO">   256</i>
   <i name="APACO">     16.00000000</i>
  </separator>
  <separator name="symmetry" >
   <i type="int" name="ISYM">     2</i>
   <i name="SYMPREC">      0.00001000</i>
  </separator>
  <separator name="dos" >
   <i type="int" name="LORBIT">     0</i>
   <v name="RWIGS">     -1.00000000     -1.00000000     -1.00000000     -1.00000000</v>
   <i type="int" name="NEDOS">   301</i>
   <i name="EMIN">     10.00000000</i>
   <i name="EMAX">    -10.00000000</i>
   <i name="EFERMI">      0.00000000</i>
  </separator>
  <separator name="writing" >
   <i type="int" name="NWRITE">     0</i>
   <i type="logical" name="LWAVE"> F  </i>
   <i type="logical" name="LDOWNSAMPLE"> F  </i>
   <i type="logical" name="LCHARG"> F  </i>
   <i type="logical" name="LPARD"> F  </i>
   <i type="logical" name="LVTOT"> F  </i>
   <i type="logical" name="LVHAR"> F  </i>
   <i type="logical" name="LELF"> F  </i>
   <i type="logical" name="LOPTICS"> F  </i>
   <v name="STM">      0.00000000      0.00000000      0.00000000      0.00000000      0.00000000      0.00000000      0.00000000</v>
  </separator>
  <separator name="performance" >
   <i type="int" name="NPAR">    16</i>
   <i type="int" name="NSIM">     4</i>
   <i type="int" name="NBLK">    -1</i>
   <i type="logical" name="LPLANE"> T  </i>
   <i type="logical" name="LSCALAPACK"> T  </i>
   <i type="logical" name="LSCAAWARE"> F  </i>
   <i type="logical" name="LSCALU"> F  </i>
   <i type="logical" name="LASYNC"> F  </i>
   <i type="logical" name="LORBITALREAL"> F  </i>
  </separator>
  <separator name="miscellaneous" >
   <i type="int" name="IDIOT">     3</i>
   <i type="int" name="ISPECIAL">     0</i>
   <i type="logical" name="LMUSIC"> F  </i>
   <v name="POMASS">     14.00100000     12.01100000      1.00000000     16.00000000</v>
   <v name="DARWINR">      0.00000000      0.00000000      0.00000000      0.00000000</v>
   <v name="DARWINV">      1.00000000      1.00000000      1.00000000      1.00000000</v>
   <i type="logical" name="LCORR"> T  </i>
  </separator>
  <i type="logical" name="GGA_COMPAT"> T  </i>
  <i type="logical" name="LBERRY"> F  </i>
  <i type="int" name="ICORELEVEL">     0</i>
  <i type="logical" name="LDAU"> F  </i>
  <i type="int" name="I_CONSTRAINED_M">     0</i>
  <separator name="electronic exchange-correlation" >
   <i type="string" name="GGA">PE</i>
   <i type="int" name="VOSKOWN">     0</i>
   <i type="logical" name="LHFCALC"> F  </i>
   <i type="string" name="PRECFOCK"></i>
   <i type="logical" name="LSYMGRAD"> F  </i>
   <i type="logical" name="LHFONE"> F  </i>
   <i type="logical" name="LRHFCALC"> F  </i>
   <i type="logical" name="LTHOMAS"> F  </i>
   <i type="logical" name="LMODELHF"> F  </i>
   <i name="ENCUT4O">     -1.00000000</i>
   <i type="int" name="EXXOEP">     0</i>
   <i type="int" name="FOURORBIT">     0</i>
   <i name="AEXX">      0.00000000</i>
   <i name="HFALPHA">      0.00000000</i>
   <i name="MCALPHA">      0.00000000</i>
   <i name="ALDAX">      1.00000000</i>
   <i name="AGGAX">      1.00000000</i>
   <i name="ALDAC">      1.00000000</i>
   <i name="AGGAC">      1.00000000</i>
   <i type="int" name="NKREDX">     1</i>
   <i type="int" name="NKREDY">     1</i>
   <i type="int" name="NKREDZ">     1</i>
   <i type="logical" name="SHIFTRED"> F  </i>
   <i type="logical" name="ODDONLY"> F  </i>
   <i type="logical" name="EVENONLY"> F  </i>
   <i type="int" name="LMAXFOCK">     0</i>
   <i type="int" name="NMAXFOCKAE">     0</i>
   <i type="logical" name="LFOCKAEDFT"> F  </i>
   <i name="HFSCREEN">      0.00000000</i>
   <i name="HFSCREENC">      0.00000000</i>
   <i type="int" name="NBANDSGWLOW">     0</i>
  </separator>
  <separator name="vdW DFT" >
   <i type="logical" name="LUSE_VDW"> F  </i>
   <i name="Zab_VDW">     -0.84910000</i>
   <i name="PARAM1">      0.12340000</i>
   <i name="PARAM2">      1.00000000</i>
   <i name="PARAM3">      0.00000000</i>
  </separator>
  <separator name="model GW" >
   <i type="int" name="MODEL_GW">     0</i>
   <i name="MODEL_EPS0">     73.56043519</i>
   <i name="MODEL_ALPHA">      1.00000000</i>
  </separator>
  <separator name="linear response parameters" >
   <i type="logical" name="LEPSILON"> F  </i>
   <i type="logical" name="LRPA"> F  </i>
   <i type="logical" name="LNABLA"> F  </i>
   <i type="logical" name="LVEL"> F  </i>
   <i type="int" name="KINTER">     0</i>
   <i name="CSHIFT">      0.10000000</i>
   <i name="OMEGAMAX">     -1.00000000</i>
   <i name="DEG_THRESHOLD">      0.00200000</i>
   <i name="RTIME">     -0.10000000</i>
   <i name="WPLASMAI">      0.00000000</i>
   <v name="DFIELD">      0.00000000      0.00000000      0.00000000</v>
   <v name="WPLASMA">      0.00000000      0.00000000      0.00000000      0.00000000      0.00000000      0.00000000      0.00000000      0.00000000      0.00000000</v>
  </separator>
  <separator name="orbital magnetization" >
   <i type="logical" name="NUCIND"> F  </i>
   <v name="MAGPOS">      0.00000000      0.00000000      0.00000000</v>
   <i type="logical" name="LNICSALL"> T  </i>
   <i type="logical" name="ORBITALMAG"> F  </i>
   <i type="logical" name="LMAGBLOCH"> F  </i>
   <i type="logical" name="LCHIMAG"> F  </i>
   <i type="logical" name="LGAUGE"> T  </i>
   <i type="int" name="MAGATOM">     0</i>
   <v name="MAGDIPOL">      0.00000000      0.00000000      0.00000000</v>
   <v name="AVECCONST">      0.00000000      0.00000000      0.00000000</v>
  </separator>
  <separator name="response functions" >
   <i type="logical" name="LADDER"> F  </i>
   <i type="logical" name="LRPAFORCE"> F  </i>
   <i type="logical" name="LFXC"> F  </i>
   <i type="logical" name="LHARTREE"> T  </i>
   <i type="int" name="IBSE">     0</i>
   <v type="int" name="KPOINT">    -1     0     0     0</v>
   <i type="logical" name="LTCTE"> F  </i>
   <i type="logical" name="LTETE"> F  </i>
   <i type="logical" name="LTRIPLET"> F  </i>
   <i type="logical" name="LFXCEPS"> F  </i>
   <i type="logical" name="LFXHEG"> F  </i>
   <i type="int" name="NATURALO">     2</i>
   <i type="logical" name="L2ORDER"> F  </i>
   <i type="logical" name="LMP2LT"> F  </i>
   <i type="logical" name="LUSEW"> F  </i>
   <i name="ENCUTGW">     -2.00000000</i>
   <i name="ENCUTGWSOFT">     -2.00000000</i>
   <i name="ENCUTLF">     -1.00000000</i>
   <i type="int" name="LMAXMP2">    -1</i>
   <i name="SCISSOR">      0.00000000</i>
   <i type="int" name="NOMEGA">     0</i>
   <i type="int" name="NOMEGAR">     0</i>
   <i type="int" name="NBANDSGW">    -1</i>
   <i type="int" name="NBANDSO">    -1</i>
   <i type="int" name="NBANDSV">    -1</i>
   <i type="int" name="NELM">   200</i>
   <i type="int" name="NELMHF">     1</i>
   <i type="int" name="DIM">     3</i>
   <i type="int" name="ANTIRES">     0</i>
   <i name="OMEGAMAX">    -30.00000000</i>
   <i name="OMEGAMIN">    -30.00000000</i>
   <i name="OMEGATL">   -200.00000000</i>
   <i type="int" name="OMEGAGRID">   140</i>
   <i name="CSHIFT">     -0.10000000</i>
   <i type="logical" name="SELFENERGY"> F  </i>
   <i type="logical" name="LSPECTRAL"> F  </i>
   <i type="logical" name="LSPECTRALGW"> F  </i>
   <i type="logical" name="LSINGLES"> F  </i>
   <i type="logical" name="LFERMIGW"> F  </i>
   <i type="logical" name="ODDONLYGW"> F  </i>
   <i type="logical" name="EVENONLYGW"> F  </i>
   <i type="int" name="NKREDLFX">     1</i>
   <i type="int" name="NKREDLFY">     1</i>
   <i type="int" name="NKREDLFZ">     1</i>
   <i type="int" name="MAXMEM">  2800</i>
   <i type="int" name="TELESCOPE">     0</i>
   <i type="int" name="TAUPAR">     1</i>
   <i type="int" name="OMEGAPAR">    -1</i>
   <i name="LAMBDA">      1.00000000</i>
  </separator>
  <separator name="External order field" >
   <i name="OFIELD_KAPPA">      0.00000000</i>
   <v name="OFIELD_K">      0.00000000      0.00000000      0.00000000</v>
   <i name="OFIELD_Q6_NEAR">      0.00000000</i>
   <i name="OFIELD_Q6_FAR">      0.00000000</i>
   <i name="OFIELD_A">      0.00000000</i>
  </separator>
  <separator name="solvation model" >
   <i type="logical" name="LSOL"> F  </i>
  </separator>
 </parameters>
 <atominfo>
  <atoms>      72 </atoms>
  <types>       4 </types>
  <array name="atoms" >
   <dimension dim="1">ion</dimension>
   <field type="string">element</field>
   <field type="int">atomtype</field>
   <set>
    <rc><c>N </c><c>   1</c></rc>
    <rc><c>N </c><c>   1</c></rc>
    <rc><c>N </c><c>   1</c></rc>
    <rc><c>N </c><c>   1</c></rc>
    <rc><c>N </c><c>   1</c></rc>
    <rc><c>N </c><c>   1</c></rc>
    <rc><c>C </c><c>   2</c></rc>
    <rc><c>C </c><c>   2</c></rc>
    <rc><c>C </c><c>   2</c></rc>
    <rc><c>C </c><c>   2</c></rc>
    <rc><c>C </c><c>   2</c></rc>
    <rc><c>C </c><c>   2</c></rc>
    <rc><c>C </c><c>   2</c></rc>
    <rc><c>C </c><c>   2</c></rc>
    <rc><c>C </c><c>   2</c></rc>
    <rc><c>C </c><c>   2</c></rc>
    <rc><c>C </c><c>   2</c></rc>
    <rc><c>C </c><c>   2</c></rc>
    <rc><c>C </c><c>   2</c></rc>
    <rc><c>C </c><c>   2</c></rc>
    <rc><c>C </c><c>   2</c></rc>
    <rc><c>C </c><c>   2</c></rc>
    <rc><c>C </c><c>   2</c></rc>
    <rc><c>C </c><c>   2</c></rc>
    <rc><c>C </c><c>   2</c></rc>
    <rc><c>C </c><c>   2</c></rc>
    <rc><c>C </c><c>   2</c></rc>
    <rc><c>C </c><c>   2</c></rc>
    <rc><c>C </c><c>   2</c></rc>
    <rc><c>C </c><c>   2</c></rc>
    <rc><c>C </c><c>   2</c></rc>
    <rc><c>C </c><c>   2</c></rc>
    <rc><c>C </c><c>   2</c></rc>
    <rc><c>C </c><c>   2</c></rc>
    <rc><c>C </c><c>   2</c></rc>
    <rc><c>C </c><c>   2</c></rc>
    <rc><c>C </c><c>   2</c></rc>
    <rc><c>C </c><c>   2</c></rc>
    <rc><c>C </c><c>   2</c></rc>
    <rc><c>C </c><c>   2</c></rc>
    <rc><c>C </c><c>   2</c></rc>
    <rc><c>C </c><c>   2</c></rc>
    <rc><c>H </c><c>   3</c></rc>
    <rc><c>H </c><c>   3</c></rc>
    <rc><c>H </c><c>   3</c></rc>
    <rc><c>H </c><c>   3</c></rc>
    <rc><c>H </c><c>   3</c></rc>
    <rc><c>H </c><c>   3</c></rc>
    <rc><c>H </c><c>   3</c></rc>
    <rc><c>H </c><c>   3</c></rc>
    <rc><c>H </c><c>   3</c></rc>
    <rc><c>H </c><c>   3</c></rc>
    <rc><c>H </c><c>   3</c></rc>
    <rc><c>H </c><c>   3</c></rc>
    <rc><c>H </c><c>   3</c></rc>
    <rc><c>H </c><c>   3</c></rc>
    <rc><c>H </c><c>   3</c></rc>
    <rc><c>H </c><c>   3</c></rc>
    <rc><c>H </c><c>   3</c></rc>
    <rc><c>H </c><c>   3</c></rc>
    <rc><c>H </c><c>   3</c></rc>
    <rc><c>H </c><c>   3</c></rc>
    <rc><c>H </c><c>   3</c></rc>
    <rc><c>H </c><c>   3</c></rc>
    <rc><c>H </c><c>   3</c></rc>
    <rc><c>H </c><c>   3</c></rc>
    <rc><c>O </c><c>   4</c></rc>
    <rc><c>O </c><c>   4</c></rc>
    <rc><c>O </c><c>   4</c></rc>
    <rc><c>O </c><c>   4</c></rc>
    <rc><c>O </c><c>   4</c></rc>
    <rc><c>O </c><c>   4</c></rc>
   </set>
  </array>
  <array name="atomtypes" >
   <dimension dim="1">type</dimension>
   <field type="int">atomspertype</field>
   <field type="string">element</field>
   <field>mass</field>
   <field>valence</field>
   <field type="string">pseudopotential</field>
   <set>
    <rc><c>   6</c><c>N </c><c>     14.00100000</c><c>      5.00000000</c><c>  PAW_PBE N 08Apr2002                   </c></rc>
    <rc><c>  36</c><c>C </c><c>     12.01100000</c><c>      4.00000000</c><c>  PAW_PBE C 08Apr2002                   </c></rc>
    <rc><c>  24</c><c>H </c><c>      1.00000000</c><c>      1.00000000</c><c>  PAW_PBE H 15Jun2001                   </c></rc>
    <rc><c>   6</c><c>O </c><c>     16.00000000</c><c>      6.00000000</c><c>  PAW_PBE O 08Apr2002                   </c></rc>
   </set>
  </array>
 </atominfo>
 <structure name="initialpos" >
  <crystal>
   <varray name="basis" >
    <v>      22.59017342       0.02015329       0.00000000 </v>
    <v>     -11.27767062      19.52775310       0.00000000 </v>
    <v>       0.00000000       0.00000000      20.00000000 </v>
   </varray>
   <i name="volume">   8827.25222288 </i>
   <varray name="rec_basis" >
    <v>       0.04424424       0.02555194       0.00000000 </v>
    <v>      -0.00004566       0.05118280       0.00000000 </v>
    <v>       0.00000000       0.00000000       0.05000000 </v>
   </varray>
  </crystal>
  <varray name="positions" >
   <v>       0.43169631       0.57229473       0.51442201 </v>
   <v>       0.13850843       0.55861897       0.51349747 </v>
   <v>       0.41803371       0.85185240       0.51420018 </v>
   <v>       0.56134061       0.41690988       0.48063456 </v>
   <v>       0.85390306       0.42989224       0.48020232 </v>
   <v>       0.57419090       0.13691229       0.48043016 </v>
   <v>       0.73282440       0.34739214       0.46984730 </v>
   <v>       0.68238784       0.27807633       0.46955287 </v>
   <v>       0.61305361       0.25824828       0.46953365 </v>
   <v>       0.59431985       0.30882809       0.46910597 </v>
   <v>       0.71300301       0.39702562       0.46947166 </v>
   <v>       0.80564558       0.36224379       0.47221032 </v>
   <v>       0.55506142       0.18531079       0.47148219 </v>
   <v>       0.25968663       0.64129067       0.52374336 </v>
   <v>       0.31005174       0.71063171       0.52462241 </v>
   <v>       0.37941770       0.73060327       0.52533464 </v>
   <v>       0.39832236       0.68014433       0.52589374 </v>
   <v>       0.27968719       0.59178113       0.52417076 </v>
   <v>       0.18682057       0.62635499       0.52080651 </v>
   <v>       0.43726537       0.80363471       0.52402620 </v>
   <v>       0.53302488       0.56540193       0.49619344 </v>
   <v>       0.56769840       0.52960301       0.48709121 </v>
   <v>       0.46203943       0.53149587       0.50656495 </v>
   <v>       0.02991508       0.45716446       0.49743015 </v>
   <v>       0.95953883       0.42271220       0.48852255 </v>
   <v>       0.06750121       0.52852765       0.50576099 </v>
   <v>       0.42539210       0.96045069       0.49573481 </v>
   <v>       0.46137803       0.03094305       0.48663613 </v>
   <v>       0.45897110       0.92299264       0.50642867 </v>
   <v>       0.64380269       0.37827295       0.46948086 </v>
   <v>       0.62879498       0.43628922       0.47145948 </v>
   <v>       0.34893779       0.61066761       0.52486922 </v>
   <v>       0.36411762       0.55276962       0.52289222 </v>
   <v>       0.53098730       0.45768896       0.48844680 </v>
   <v>       0.45999998       0.42376736       0.49879822 </v>
   <v>       0.42532558       0.45956479       0.50790687 </v>
   <v>       0.92492039       0.46001323       0.48801089 </v>
   <v>       0.96250540       0.53137901       0.49642238 </v>
   <v>       0.03289269       0.56583699       0.50530570 </v>
   <v>       0.53317155       0.06579147       0.48829343 </v>
   <v>       0.56674475       0.02832223       0.49896108 </v>
   <v>       0.53076359       0.95784128       0.50807402 </v>
   <v>       0.53941824       0.28994383       0.46818014 </v>
   <v>       0.74902352       0.45203231       0.46898397 </v>
   <v>       0.70133510       0.24200194       0.46911154 </v>
   <v>       0.45324344       0.69914076       0.52745071 </v>
   <v>       0.24377718       0.53674755       0.52411000 </v>
   <v>       0.29105595       0.74665949       0.52500532 </v>
   <v>       0.62257314       0.55634119       0.47905968 </v>
   <v>       0.56198898       0.62131803       0.49519573 </v>
   <v>       0.46460511       0.62333412       0.51041950 </v>
   <v>       0.93105763       0.36754007       0.48204284 </v>
   <v>       0.05639635       0.42774297       0.49786423 </v>
   <v>       0.15618008       0.52520277       0.51133420 </v>
   <v>       0.43484128       0.05934075       0.47843730 </v>
   <v>       0.36957976       0.93379299       0.49450263 </v>
   <v>       0.36717166       0.83386858       0.50914995 </v>
   <v>       0.43104488       0.36784317       0.49978077 </v>
   <v>       0.37043901       0.43278023       0.51589503 </v>
   <v>       0.52844464       0.36588464       0.48486371 </v>
   <v>       0.93607669       0.56085770       0.49603481 </v>
   <v>       0.06140724       0.62101078       0.51175088 </v>
   <v>       0.83620852       0.46324773       0.48307751 </v>
   <v>       0.62255405       0.05499206       0.50021777 </v>
   <v>       0.55728371       0.92943848       0.51633063 </v>
   <v>       0.62509688       0.15468061       0.48456084 </v>
   <v>       0.67524968       0.49652721       0.46638392 </v>
   <v>       0.81918086       0.31548138       0.46835216 </v>
   <v>       0.49495741       0.17182746       0.46654062 </v>
   <v>       0.31767271       0.49246121       0.52734717 </v>
   <v>       0.17325079       0.67313825       0.52373650 </v>
   <v>       0.49733384       0.81731766       0.53013396 </v>
  </varray>
 </structure>
 <calculation>
  <scstep>
   <time name="dav">  223.91  226.40</time>
   <time name="total">  224.05  226.55</time>
   <energy>
    <i name="alphaZ">     28.25940714 </i>
    <i name="ewald">  25313.59689216 </i>
    <i name="hartreedc"> -33360.40241396 </i>
    <i name="XCdc">    853.70584411 </i>
    <i name="pawpsdc">  21683.81692565 </i>
    <i name="pawaedc"> -21729.74772940 </i>
    <i name="eentropy">     -0.00000000 </i>
    <i name="bandstr">  -3071.48760222 </i>
    <i name="atom">   9778.36520160 </i>
    <i name="e_fr_energy">   -503.89347493 </i>
    <i name="e_wo_entrp">   -503.89347493 </i>
    <i name="e_0_energy">   -503.89347493 </i>
   </energy>
  </scstep>
  <scstep>
   <time name="dav">  249.44  252.19</time>
   <time name="total">  249.44  252.20</time>
   <energy>
    <i name="e_fr_energy">   -504.45189007 </i>
    <i name="e_wo_entrp">   -504.45189007 </i>
    <i name="e_0_energy">   -504.45189007 </i>
   </energy>
  </scstep>
  <scstep>
   <time name="dav">  281.87  284.92</time>
   <time name="total">  281.87  284.92</time>
   <energy>
    <i name="e_fr_energy">   -504.46636749 </i>
    <i name="e_wo_entrp">   -504.46636749 </i>
    <i name="e_0_energy">   -504.46636749 </i>
   </energy>
  </scstep>
  <scstep>
   <time name="dav">  248.65  251.38</time>
   <time name="total">  248.65  251.38</time>
   <energy>
    <i name="e_fr_energy">   -504.46665197 </i>
    <i name="e_wo_entrp">   -504.46665197 </i>
    <i name="e_0_energy">   -504.46665197 </i>
   </energy>
  </scstep>
  <scstep>
   <time name="dav">  240.43  243.06</time>
   <time name="total">  240.43  243.07</time>
   <energy>
    <i name="e_fr_energy">   -504.46666527 </i>
    <i name="e_wo_entrp">   -504.46666527 </i>
    <i name="e_0_energy">   -504.46666527 </i>
   </energy>
  </scstep>
  <scstep>
   <time name="dav">  198.72  200.82</time>
   <time name="total">  198.72  200.82</time>
   <energy>
    <i name="alphaZ">     28.25940714 </i>
    <i name="ewald">  25313.59689216 </i>
    <i name="hartreedc"> -33360.40241396 </i>
    <i name="XCdc">    853.70584411 </i>
    <i name="pawpsdc">  21683.81692565 </i>
    <i name="pawaedc"> -21729.74772940 </i>
    <i name="eentropy">     -0.00000000 </i>
    <i name="bandstr">  -3072.06079315 </i>
    <i name="atom">   9778.36520160 </i>
    <i name="e_fr_energy">   -504.46666586 </i>
    <i name="e_wo_entrp">   -504.46666586 </i>
    <i name="e_0_energy">   -504.46666586 </i>
   </energy>
  </scstep>
  <structure>
   <crystal>
    <varray name="basis" >
     <v>      22.59017342       0.02015329       0.00000000 </v>
     <v>     -11.27767062      19.52775310       0.00000000 </v>
     <v>       0.00000000       0.00000000      20.00000000 </v>
    </varray>
    <i name="volume">   8827.25222288 </i>
    <varray name="rec_basis" >
     <v>       0.04424424       0.02555194       0.00000000 </v>
     <v>      -0.00004566       0.05118280       0.00000000 </v>
     <v>       0.00000000       0.00000000       0.05000000 </v>
    </varray>
   </crystal>
   <varray name="positions" >
    <v>       0.43169631       0.57229473       0.51442201 </v>
    <v>       0.13850843       0.55861897       0.51349747 </v>
    <v>       0.41803371       0.85185240       0.51420018 </v>
    <v>       0.56134061       0.41690988       0.48063456 </v>
    <v>       0.85390306       0.42989224       0.48020232 </v>
    <v>       0.57419090       0.13691229       0.48043016 </v>
    <v>       0.73282440       0.34739214       0.46984730 </v>
    <v>       0.68238784       0.27807633       0.46955287 </v>
    <v>       0.61305361       0.25824828       0.46953365 </v>
    <v>       0.59431985       0.30882809       0.46910597 </v>
    <v>       0.71300301       0.39702562       0.46947166 </v>
    <v>       0.80564558       0.36224379       0.47221032 </v>
    <v>       0.55506142       0.18531079       0.47148219 </v>
    <v>       0.25968663       0.64129067       0.52374336 </v>
    <v>       0.31005174       0.71063171       0.52462241 </v>
    <v>       0.37941770       0.73060327       0.52533464 </v>
    <v>       0.39832236       0.68014433       0.52589374 </v>
    <v>       0.27968719       0.59178113       0.52417076 </v>
    <v>       0.18682057       0.62635499       0.52080651 </v>
    <v>       0.43726537       0.80363471       0.52402620 </v>
    <v>       0.53302488       0.56540193       0.49619344 </v>
    <v>       0.56769840       0.52960301       0.48709121 </v>
    <v>       0.46203943       0.53149587       0.50656495 </v>
    <v>       0.02991508       0.45716446       0.49743015 </v>
    <v>       0.95953883       0.42271220       0.48852255 </v>
    <v>       0.06750121       0.52852765       0.50576099 </v>
    <v>       0.42539210       0.96045069       0.49573481 </v>
    <v>       0.46137803       0.03094305       0.48663613 </v>
    <v>       0.45897110       0.92299264       0.50642867 </v>
    <v>       0.64380269       0.37827295       0.46948086 </v>
    <v>       0.62879498       0.43628922       0.47145948 </v>
    <v>       0.34893779       0.61066761       0.52486922 </v>
    <v>       0.36411762       0.55276962       0.52289222 </v>
    <v>       0.53098730       0.45768896       0.48844680 </v>
    <v>       0.45999998       0.42376736       0.49879822 </v>
    <v>       0.42532558       0.45956479       0.50790687 </v>
    <v>       0.92492039       0.46001323       0.48801089 </v>
    <v>       0.96250540       0.53137901       0.49642238 </v>
    <v>       0.03289269       0.56583699       0.50530570 </v>
    <v>       0.53317155       0.06579147       0.48829343 </v>
    <v>       0.56674475       0.02832223       0.49896108 </v>
    <v>       0.53076359       0.95784128       0.50807402 </v>
    <v>       0.53941824       0.28994383       0.46818014 </v>
    <v>       0.74902352       0.45203231       0.46898397 </v>
    <v>       0.70133510       0.24200194       0.46911154 </v>
    <v>       0.45324344       0.69914076       0.52745071 </v>
    <v>       0.24377718       0.53674755       0.52411000 </v>
    <v>       0.29105595       0.74665949       0.52500532 </v>
    <v>       0.62257314       0.55634119       0.47905968 </v>
    <v>       0.56198898       0.62131803       0.49519573 </v>
    <v>       0.46460511       0.62333412       0.51041950 </v>
    <v>       0.93105763       0.36754007       0.48204284 </v>
    <v>       0.05639635       0.42774297       0.49786423 </v>
    <v>       0.15618008       0.52520277       0.51133420 </v>
    <v>       0.43484128       0.05934075       0.47843730 </v>
    <v>       0.36957976       0.93379299       0.49450263 </v>
    <v>       0.36717166       0.83386858       0.50914995 </v>
    <v>       0.43104488       0.36784317       0.49978077 </v>
    <v>       0.37043901       0.43278023       0.51589503 </v>
    <v>       0.52844464       0.36588464       0.48486371 </v>
    <v>       0.93607669       0.56085770       0.49603481 </v>
    <v>       0.06140724       0.62101078       0.51175088 </v>
    <v>       0.83620852       0.46324773       0.48307751 </v>
    <v>       0.62255405       0.05499206       0.50021777 </v>
    <v>       0.55728371       0.92943848       0.51633063 </v>
    <v>       0.62509688       0.15468061       0.48456084 </v>
    <v>       0.67524968       0.49652721       0.46638392 </v>
    <v>       0.81918086       0.31548138       0.46835216 </v>
    <v>       0.49495741       0.17182746       0.46654062 </v>
    <v>       0.31767271       0.49246121       0.52734717 </v>
    <v>       0.17325079       0.67313825       0.52373650 </v>
    <v>       0.49733384       0.81731766       0.53013396 </v>
   </varray>
  </structure>
  <varray name="forces" >
   <v>      -0.00184808      -0.00000289      -0.00410194 </v>
   <v>       0.00293376      -0.00237061      -0.00211446 </v>
   <v>       0.00419833      -0.00376731      -0.00069854 </v>
   <v>      -0.00522677      -0.00139791      -0.00283836 </v>
   <v>      -0.00289279       0.00027666      -0.00606403 </v>
   <v>      -0.00089131      -0.00209757      -0.00403432 </v>
   <v>       0.00169239      -0.00393556       0.00233962 </v>
   <v>       0.00141013      -0.00184474       0.00155436 </v>
   <v>       0.00084596       0.00017028      -0.00034322 </v>
   <v>      -0.00055147       0.00373681       0.00086754 </v>
   <v>      -0.00013061      -0.00067846       0.00173902 </v>
   <v>       0.00250409      -0.00184929      -0.00283922 </v>
   <v>      -0.00205312      -0.00122437      -0.00185922 </v>
   <v>       0.00147717       0.00083416      -0.00039123 </v>
   <v>      -0.00112244       0.00072868      -0.00186026 </v>
   <v>       0.00002450      -0.00119585       0.00105133 </v>
   <v>      -0.00196428       0.00043220      -0.00063977 </v>
   <v>      -0.00003260      -0.00011730      -0.00059189 </v>
   <v>       0.00246811      -0.00142164       0.00055830 </v>
   <v>       0.00194571      -0.00337955       0.00039636 </v>
   <v>       0.00193116       0.00366601       0.00018677 </v>
   <v>      -0.00074582       0.00116779       0.00114173 </v>
   <v>       0.00240255      -0.00022325       0.00068380 </v>
   <v>       0.00091595      -0.00167650      -0.00334454 </v>
   <v>      -0.00125575      -0.00347677       0.00149808 </v>
   <v>       0.00209790       0.00179139      -0.00292836 </v>
   <v>      -0.00052446       0.00144157       0.00119763 </v>
   <v>       0.00261835       0.00158949       0.00125179 </v>
   <v>       0.00051198      -0.00034843       0.00190160 </v>
   <v>      -0.00223049       0.00328153       0.00164430 </v>
   <v>      -0.00144094      -0.00174649      -0.00052328 </v>
   <v>      -0.00318086       0.00405127       0.00065259 </v>
   <v>      -0.00339058       0.00096161      -0.00226510 </v>
   <v>       0.00085670      -0.00176186      -0.00103418 </v>
   <v>      -0.00023176       0.00010914       0.00270848 </v>
   <v>       0.00152879       0.00106372       0.00141148 </v>
   <v>       0.00024850      -0.00123775       0.00070941 </v>
   <v>      -0.00041519      -0.00119161       0.00228600 </v>
   <v>       0.00092336      -0.00164855      -0.00265698 </v>
   <v>       0.00580624       0.00202293      -0.00164489 </v>
   <v>       0.00250806      -0.00123365       0.00193177 </v>
   <v>       0.00009109       0.00003969       0.00135593 </v>
   <v>      -0.00391647      -0.00100881       0.00050843 </v>
   <v>      -0.00291001      -0.00230318       0.00122089 </v>
   <v>      -0.00294131      -0.00053091       0.00041104 </v>
   <v>      -0.00265738      -0.00256220       0.00064463 </v>
   <v>       0.00060066       0.00096921      -0.00100756 </v>
   <v>      -0.00212125       0.00252393      -0.00006865 </v>
   <v>      -0.00027114       0.00335219       0.00063104 </v>
   <v>      -0.00232929       0.00194709      -0.00452732 </v>
   <v>      -0.00028392       0.00074867      -0.00114306 </v>
   <v>      -0.00148935      -0.00136680      -0.00154484 </v>
   <v>       0.00219446      -0.00165387      -0.00581748 </v>
   <v>      -0.00064524      -0.00118957      -0.00494241 </v>
   <v>       0.00229690      -0.00163275      -0.00192045 </v>
   <v>       0.00210658      -0.00084653      -0.00376655 </v>
   <v>       0.00090159       0.00035779      -0.00057562 </v>
   <v>       0.00126422       0.00177344       0.00539045 </v>
   <v>       0.00356262       0.00403966      -0.00103656 </v>
   <v>       0.00092955       0.00224204       0.00437756 </v>
   <v>      -0.00259398      -0.00428088       0.00405830 </v>
   <v>      -0.00158312       0.00178597       0.00024429 </v>
   <v>      -0.00488138       0.00064929       0.00534537 </v>
   <v>       0.00126773       0.00084247       0.00451915 </v>
   <v>      -0.00053551       0.00195511       0.00169575 </v>
   <v>      -0.00040777       0.00192849       0.00363000 </v>
   <v>      -0.00168742      -0.00362114       0.00505256 </v>
   <v>      -0.00108548      -0.00110369      -0.00090579 </v>
   <v>       0.00168097       0.00536165       0.00820943 </v>
   <v>       0.00125280       0.00421705      -0.00430492 </v>
   <v>       0.00552491      -0.00114092      -0.00119380 </v>
   <v>      -0.00305444       0.00101022       0.00052206 </v>
  </varray>
  <varray name="stress" >
   <v>       0.13330739      -0.00650859      -0.00131574 </v>
   <v>      -0.00650859       0.14001668       0.00341291 </v>
   <v>      -0.00131574       0.00341291      -0.20015340 </v>
  </varray>
  <energy>
   <i name="e_fr_energy">   -505.84155759 </i>
   <i name="e_wo_entrp">   -505.84155759 </i>
   <i name="e_0_energy">     -0.00000000 </i>
  </energy>
  <time name="totalsc"> 1707.55 1726.94</time>
  <eigenvalues>
   <array>
    <dimension dim="1">band</dimension>
    <dimension dim="2">kpoint</dimension>
    <dimension dim="3">spin</dimension>
    <field>eigene</field>
    <field>occ</field>
    <set>
     <set comment="spin 1">
      <set comment="kpoint 1">
       <r>  -26.0119    1.0000 </r>
       <r>  -26.0073    1.0000 </r>
       <r>  -25.9957    1.0000 </r>
       <r>  -25.9935    1.0000 </r>
       <r>  -25.9908    1.0000 </r>
       <r>  -25.9891    1.0000 </r>
       <r>  -23.6994    1.0000 </r>
       <r>  -23.6982    1.0000 </r>
       <r>  -23.6931    1.0000 </r>
       <r>  -23.6012    1.0000 </r>
       <r>  -23.6001    1.0000 </r>
       <r>  -23.5956    1.0000 </r>
       <r>  -21.9250    1.0000 </r>
       <r>  -21.8858    1.0000 </r>
       <r>  -21.0642    1.0000 </r>
       <r>  -21.0640    1.0000 </r>
       <r>  -20.9422    1.0000 </r>
       <r>  -19.6356    1.0000 </r>
       <r>  -19.6353    1.0000 </r>
       <r>  -19.3176    1.0000 </r>
       <r>  -19.3165    1.0000 </r>
       <r>  -18.6982    1.0000 </r>
       <r>  -18.5691    1.0000 </r>
       <r>  -18.5689    1.0000 </r>
       <r>  -18.5133    1.0000 </r>
       <r>  -18.2992    1.0000 </r>
       <r>  -18.2980    1.0000 </r>
       <r>  -16.8179    1.0000 </r>
       <r>  -16.8168    1.0000 </r>
       <r>  -16.7865    1.0000 </r>
       <r>  -15.9806    1.0000 </r>
       <r>  -15.9794    1.0000 </r>
       <r>  -15.6965    1.0000 </r>
       <r>  -15.6958    1.0000 </r>
       <r>  -15.6407    1.0000 </r>
       <r>  -15.3299    1.0000 </r>
       <r>  -15.0787    1.0000 </r>
       <r>  -15.0778    1.0000 </r>
       <r>  -14.6461    1.0000 </r>
       <r>  -14.6438    1.0000 </r>
       <r>  -14.3938    1.0000 </r>
       <r>  -14.2286    1.0000 </r>
       <r>  -13.6730    1.0000 </r>
       <r>  -13.6716    1.0000 </r>
       <r>  -13.6374    1.0000 </r>
       <r>  -13.2940    1.0000 </r>
       <r>  -13.2925    1.0000 </r>
       <r>  -13.1870    1.0000 </r>
       <r>  -13.1841    1.0000 </r>
       <r>  -13.0485    1.0000 </r>
       <r>  -12.9407    1.0000 </r>
       <r>  -12.2732    1.0000 </r>
       <r>  -12.0229    1.0000 </r>
       <r>  -11.5819    1.0000 </r>
       <r>  -11.5802    1.0000 </r>
       <r>  -11.4811    1.0000 </r>
       <r>  -11.4655    1.0000 </r>
       <r>  -11.4652    1.0000 </r>
       <r>  -11.2872    1.0000 </r>
       <r>  -11.0051    1.0000 </r>
       <r>  -10.9361    1.0000 </r>
       <r>  -10.8077    1.0000 </r>
       <r>  -10.8029    1.0000 </r>
       <r>  -10.7708    1.0000 </r>
       <r>  -10.7659    1.0000 </r>
       <r>  -10.7262    1.0000 </r>
       <r>  -10.6197    1.0000 </r>
       <r>  -10.6169    1.0000 </r>
       <r>  -10.5728    1.0000 </r>
       <r>  -10.5724    1.0000 </r>
       <r>  -10.5162    1.0000 </r>
       <r>  -10.2886    1.0000 </r>
       <r>  -10.2619    1.0000 </r>
       <r>  -10.2604    1.0000 </r>
       <r>  -10.2304    1.0000 </r>
       <r>  -10.2297    1.0000 </r>
       <r>  -10.0296    1.0000 </r>
       <r>   -9.8616    1.0000 </r>
       <r>   -9.8603    1.0000 </r>
       <r>   -9.7725    1.0000 </r>
       <r>   -9.7369    1.0000 </r>
       <r>   -9.5426    1.0000 </r>
       <r>   -9.5416    1.0000 </r>
       <r>   -9.4895    1.0000 </r>
       <r>   -9.2907    1.0000 </r>
       <r>   -9.2546    1.0000 </r>
       <r>   -9.2544    1.0000 </r>
       <r>   -8.9221    1.0000 </r>
       <r>   -8.9206    1.0000 </r>
       <r>   -8.9047    1.0000 </r>
       <r>   -8.9031    1.0000 </r>
       <r>   -8.6144    1.0000 </r>
       <r>   -8.3272    1.0000 </r>
       <r>   -8.3272    1.0000 </r>
       <r>   -8.3262    1.0000 </r>
       <r>   -8.1973    1.0000 </r>
       <r>   -8.1958    1.0000 </r>
       <r>   -7.9036    1.0000 </r>
       <r>   -6.9167    1.0000 </r>
       <r>   -6.9151    1.0000 </r>
       <r>   -6.8026    1.0000 </r>
       <r>   -6.7661    1.0000 </r>
       <r>   -6.7635    1.0000 </r>
       <r>   -6.6593    1.0000 </r>
       <r>   -6.6570    1.0000 </r>
       <r>   -6.3438    1.0000 </r>
       <r>   -6.3393    1.0000 </r>
       <r>   -6.3384    1.0000 </r>
       <r>   -6.1405    1.0000 </r>
       <r>   -6.0307    1.0000 </r>
       <r>   -5.9394    1.0000 </r>
       <r>   -5.9377    1.0000 </r>
       <r>   -5.8072    1.0000 </r>
       <r>   -5.8064    1.0000 </r>
       <r>   -5.0883    1.0000 </r>
       <r>   -5.0557    1.0000 </r>
       <r>   -5.0548    1.0000 </r>
       <r>   -2.6970    0.0000 </r>
       <r>   -2.6940    0.0000 </r>
       <r>   -2.4084    0.0000 </r>
       <r>   -2.4050    0.0000 </r>
       <r>   -1.8822    0.0000 </r>
       <r>   -1.2458    0.0000 </r>
       <r>   -1.2454    0.0000 </r>
       <r>   -1.2432    0.0000 </r>
       <r>   -1.1312    0.0000 </r>
       <r>   -0.7622    0.0000 </r>
       <r>   -0.7600    0.0000 </r>
       <r>   -0.5347    0.0000 </r>
       <r>   -0.4557    0.0000 </r>
       <r>   -0.1766    0.0000 </r>
       <r>   -0.1734    0.0000 </r>
       <r>   -0.1612    0.0000 </r>
       <r>   -0.1574    0.0000 </r>
       <r>   -0.1382    0.0000 </r>
       <r>    0.3945    0.0000 </r>
       <r>    0.4683    0.0000 </r>
       <r>    0.4910    0.0000 </r>
       <r>    0.5107    0.0000 </r>
       <r>    0.5575    0.0000 </r>
       <r>    0.6393    0.0000 </r>
       <r>    0.6403    0.0000 </r>
       <r>    0.6726    0.0000 </r>
       <r>    0.6758    0.0000 </r>
       <r>    0.7191    0.0000 </r>
       <r>    0.7225    0.0000 </r>
       <r>    0.7427    0.0000 </r>
       <r>    0.7525    0.0000 </r>
       <r>    0.8354    0.0000 </r>
       <r>    0.8774    0.0000 </r>
       <r>    0.8781    0.0000 </r>
       <r>    0.9345    0.0000 </r>
       <r>    0.9612    0.0000 </r>
       <r>    0.9738    0.0000 </r>
       <r>    0.9816    0.0000 </r>
       <r>    1.0156    0.0000 </r>
       <r>    1.0176    0.0000 </r>
       <r>    1.0579    0.0000 </r>
       <r>    1.0731    0.0000 </r>
       <r>    1.0781    0.0000 </r>
      </set>
      <set comment="kpoint 2">
       <r>  -26.0119    1.0000 </r>
       <r>  -26.0073    1.0000 </r>
       <r>  -25.9956    1.0000 </r>
       <r>  -25.9935    1.0000 </r>
       <r>  -25.9908    1.0000 </r>
       <r>  -25.9891    1.0000 </r>
       <r>  -23.6994    1.0000 </r>
       <r>  -23.6982    1.0000 </r>
       <r>  -23.6931    1.0000 </r>
       <r>  -23.6011    1.0000 </r>
       <r>  -23.6001    1.0000 </r>
       <r>  -23.5956    1.0000 </r>
       <r>  -21.9249    1.0000 </r>
       <r>  -21.8859    1.0000 </r>
       <r>  -21.0642    1.0000 </r>
       <r>  -21.0638    1.0000 </r>
       <r>  -20.9424    1.0000 </r>
       <r>  -19.6355    1.0000 </r>
       <r>  -19.6350    1.0000 </r>
       <r>  -19.3182    1.0000 </r>
       <r>  -19.3165    1.0000 </r>
       <r>  -18.6976    1.0000 </r>
       <r>  -18.5691    1.0000 </r>
       <r>  -18.5689    1.0000 </r>
       <r>  -18.5132    1.0000 </r>
       <r>  -18.2994    1.0000 </r>
       <r>  -18.2983    1.0000 </r>
       <r>  -16.8179    1.0000 </r>
       <r>  -16.8168    1.0000 </r>
       <r>  -16.7865    1.0000 </r>
       <r>  -15.9805    1.0000 </r>
       <r>  -15.9789    1.0000 </r>
       <r>  -15.6965    1.0000 </r>
       <r>  -15.6960    1.0000 </r>
       <r>  -15.6406    1.0000 </r>
       <r>  -15.3318    1.0000 </r>
       <r>  -15.0781    1.0000 </r>
       <r>  -15.0767    1.0000 </r>
       <r>  -14.6465    1.0000 </r>
       <r>  -14.6437    1.0000 </r>
       <r>  -14.3935    1.0000 </r>
       <r>  -14.2286    1.0000 </r>
       <r>  -13.6732    1.0000 </r>
       <r>  -13.6717    1.0000 </r>
       <r>  -13.6377    1.0000 </r>
       <r>  -13.2938    1.0000 </r>
       <r>  -13.2924    1.0000 </r>
       <r>  -13.1871    1.0000 </r>
       <r>  -13.1841    1.0000 </r>
       <r>  -13.0482    1.0000 </r>
       <r>  -12.9408    1.0000 </r>
       <r>  -12.2728    1.0000 </r>
       <r>  -12.0234    1.0000 </r>
       <r>  -11.5818    1.0000 </r>
       <r>  -11.5804    1.0000 </r>
       <r>  -11.4807    1.0000 </r>
       <r>  -11.4656    1.0000 </r>
       <r>  -11.4652    1.0000 </r>
       <r>  -11.2874    1.0000 </r>
       <r>  -11.0050    1.0000 </r>
       <r>  -10.9363    1.0000 </r>
       <r>  -10.8075    1.0000 </r>
       <r>  -10.8028    1.0000 </r>
       <r>  -10.7706    1.0000 </r>
       <r>  -10.7658    1.0000 </r>
       <r>  -10.7262    1.0000 </r>
       <r>  -10.6199    1.0000 </r>
       <r>  -10.6169    1.0000 </r>
       <r>  -10.5728    1.0000 </r>
       <r>  -10.5724    1.0000 </r>
       <r>  -10.5164    1.0000 </r>
       <r>  -10.2888    1.0000 </r>
       <r>  -10.2612    1.0000 </r>
       <r>  -10.2603    1.0000 </r>
       <r>  -10.2304    1.0000 </r>
       <r>  -10.2297    1.0000 </r>
       <r>  -10.0300    1.0000 </r>
       <r>   -9.8617    1.0000 </r>
       <r>   -9.8601    1.0000 </r>
       <r>   -9.7723    1.0000 </r>
       <r>   -9.7368    1.0000 </r>
       <r>   -9.5425    1.0000 </r>
       <r>   -9.5415    1.0000 </r>
       <r>   -9.4896    1.0000 </r>
       <r>   -9.2987    1.0000 </r>
       <r>   -9.2545    1.0000 </r>
       <r>   -9.2463    1.0000 </r>
       <r>   -8.9222    1.0000 </r>
       <r>   -8.9207    1.0000 </r>
       <r>   -8.9046    1.0000 </r>
       <r>   -8.9029    1.0000 </r>
       <r>   -8.6154    1.0000 </r>
       <r>   -8.3272    1.0000 </r>
       <r>   -8.3272    1.0000 </r>
       <r>   -8.3262    1.0000 </r>
       <r>   -8.1968    1.0000 </r>
       <r>   -8.1955    1.0000 </r>
       <r>   -7.9039    1.0000 </r>
       <r>   -6.9166    1.0000 </r>
       <r>   -6.9151    1.0000 </r>
       <r>   -6.8032    1.0000 </r>
       <r>   -6.7657    1.0000 </r>
       <r>   -6.7633    1.0000 </r>
       <r>   -6.6594    1.0000 </r>
       <r>   -6.6570    1.0000 </r>
       <r>   -6.3438    1.0000 </r>
       <r>   -6.3393    1.0000 </r>
       <r>   -6.3384    1.0000 </r>
       <r>   -6.1404    1.0000 </r>
       <r>   -6.0311    1.0000 </r>
       <r>   -5.9390    1.0000 </r>
       <r>   -5.9377    1.0000 </r>
       <r>   -5.8074    1.0000 </r>
       <r>   -5.8064    1.0000 </r>
       <r>   -5.0882    1.0000 </r>
       <r>   -5.0558    1.0000 </r>
       <r>   -5.0548    1.0000 </r>
       <r>   -2.6967    0.0000 </r>
       <r>   -2.6940    0.0000 </r>
       <r>   -2.4091    0.0000 </r>
       <r>   -2.4050    0.0000 </r>
       <r>   -1.8810    0.0000 </r>
       <r>   -1.2458    0.0000 </r>
       <r>   -1.2454    0.0000 </r>
       <r>   -1.2433    0.0000 </r>
       <r>   -1.1335    0.0000 </r>
       <r>   -0.7618    0.0000 </r>
       <r>   -0.7582    0.0000 </r>
       <r>   -0.5346    0.0000 </r>
       <r>   -0.4559    0.0000 </r>
       <r>   -0.1775    0.0000 </r>
       <r>   -0.1746    0.0000 </r>
       <r>   -0.1599    0.0000 </r>
       <r>   -0.1564    0.0000 </r>
       <r>   -0.1387    0.0000 </r>
       <r>    0.3947    0.0000 </r>
       <r>    0.4681    0.0000 </r>
       <r>    0.4905    0.0000 </r>
       <r>    0.5108    0.0000 </r>
       <r>    0.5567    0.0000 </r>
       <r>    0.6383    0.0000 </r>
       <r>    0.6396    0.0000 </r>
       <r>    0.6727    0.0000 </r>
       <r>    0.6766    0.0000 </r>
       <r>    0.7192    0.0000 </r>
       <r>    0.7226    0.0000 </r>
       <r>    0.7429    0.0000 </r>
       <r>    0.7534    0.0000 </r>
       <r>    0.8359    0.0000 </r>
       <r>    0.8773    0.0000 </r>
       <r>    0.8781    0.0000 </r>
       <r>    0.9345    0.0000 </r>
       <r>    0.9609    0.0000 </r>
       <r>    0.9741    0.0000 </r>
       <r>    0.9811    0.0000 </r>
       <r>    1.0151    0.0000 </r>
       <r>    1.0170    0.0000 </r>
       <r>    1.0592    0.0000 </r>
       <r>    1.0695    0.0000 </r>
       <r>    1.0792    0.0000 </r>
      </set>
      <set comment="kpoint 3">
       <r>  -26.0119    1.0000 </r>
       <r>  -26.0073    1.0000 </r>
       <r>  -25.9956    1.0000 </r>
       <r>  -25.9935    1.0000 </r>
       <r>  -25.9908    1.0000 </r>
       <r>  -25.9891    1.0000 </r>
       <r>  -23.6994    1.0000 </r>
       <r>  -23.6982    1.0000 </r>
       <r>  -23.6931    1.0000 </r>
       <r>  -23.6011    1.0000 </r>
       <r>  -23.6001    1.0000 </r>
       <r>  -23.5956    1.0000 </r>
       <r>  -21.9248    1.0000 </r>
       <r>  -21.8861    1.0000 </r>
       <r>  -21.0642    1.0000 </r>
       <r>  -21.0633    1.0000 </r>
       <r>  -20.9430    1.0000 </r>
       <r>  -19.6355    1.0000 </r>
       <r>  -19.6338    1.0000 </r>
       <r>  -19.3202    1.0000 </r>
       <r>  -19.3165    1.0000 </r>
       <r>  -18.6959    1.0000 </r>
       <r>  -18.5692    1.0000 </r>
       <r>  -18.5689    1.0000 </r>
       <r>  -18.5128    1.0000 </r>
       <r>  -18.3003    1.0000 </r>
       <r>  -18.2986    1.0000 </r>
       <r>  -16.8179    1.0000 </r>
       <r>  -16.8167    1.0000 </r>
       <r>  -16.7867    1.0000 </r>
       <r>  -15.9805    1.0000 </r>
       <r>  -15.9773    1.0000 </r>
       <r>  -15.6967    1.0000 </r>
       <r>  -15.6962    1.0000 </r>
       <r>  -15.6403    1.0000 </r>
       <r>  -15.3375    1.0000 </r>
       <r>  -15.0783    1.0000 </r>
       <r>  -15.0713    1.0000 </r>
       <r>  -14.6477    1.0000 </r>
       <r>  -14.6435    1.0000 </r>
       <r>  -14.3924    1.0000 </r>
       <r>  -14.2287    1.0000 </r>
       <r>  -13.6737    1.0000 </r>
       <r>  -13.6719    1.0000 </r>
       <r>  -13.6388    1.0000 </r>
       <r>  -13.2933    1.0000 </r>
       <r>  -13.2921    1.0000 </r>
       <r>  -13.1875    1.0000 </r>
       <r>  -13.1841    1.0000 </r>
       <r>  -13.0474    1.0000 </r>
       <r>  -12.9410    1.0000 </r>
       <r>  -12.2718    1.0000 </r>
       <r>  -12.0248    1.0000 </r>
       <r>  -11.5818    1.0000 </r>
       <r>  -11.5806    1.0000 </r>
       <r>  -11.4795    1.0000 </r>
       <r>  -11.4659    1.0000 </r>
       <r>  -11.4648    1.0000 </r>
       <r>  -11.2881    1.0000 </r>
       <r>  -11.0049    1.0000 </r>
       <r>  -10.9370    1.0000 </r>
       <r>  -10.8071    1.0000 </r>
       <r>  -10.8025    1.0000 </r>
       <r>  -10.7701    1.0000 </r>
       <r>  -10.7657    1.0000 </r>
       <r>  -10.7264    1.0000 </r>
       <r>  -10.6206    1.0000 </r>
       <r>  -10.6169    1.0000 </r>
       <r>  -10.5727    1.0000 </r>
       <r>  -10.5724    1.0000 </r>
       <r>  -10.5170    1.0000 </r>
       <r>  -10.2892    1.0000 </r>
       <r>  -10.2603    1.0000 </r>
       <r>  -10.2594    1.0000 </r>
       <r>  -10.2304    1.0000 </r>
       <r>  -10.2299    1.0000 </r>
       <r>  -10.0311    1.0000 </r>
       <r>   -9.8619    1.0000 </r>
       <r>   -9.8595    1.0000 </r>
       <r>   -9.7717    1.0000 </r>
       <r>   -9.7367    1.0000 </r>
       <r>   -9.5423    1.0000 </r>
       <r>   -9.5411    1.0000 </r>
       <r>   -9.4898    1.0000 </r>
       <r>   -9.3143    1.0000 </r>
       <r>   -9.2545    1.0000 </r>
       <r>   -9.2303    1.0000 </r>
       <r>   -8.9224    1.0000 </r>
       <r>   -8.9211    1.0000 </r>
       <r>   -8.9044    1.0000 </r>
       <r>   -8.9026    1.0000 </r>
       <r>   -8.6183    1.0000 </r>
       <r>   -8.3272    1.0000 </r>
       <r>   -8.3272    1.0000 </r>
       <r>   -8.3261    1.0000 </r>
       <r>   -8.1963    1.0000 </r>
       <r>   -8.1937    1.0000 </r>
       <r>   -7.9049    1.0000 </r>
       <r>   -6.9162    1.0000 </r>
       <r>   -6.9151    1.0000 </r>
       <r>   -6.8048    1.0000 </r>
       <r>   -6.7647    1.0000 </r>
       <r>   -6.7626    1.0000 </r>
       <r>   -6.6597    1.0000 </r>
       <r>   -6.6572    1.0000 </r>
       <r>   -6.3438    1.0000 </r>
       <r>   -6.3392    1.0000 </r>
       <r>   -6.3385    1.0000 </r>
       <r>   -6.1401    1.0000 </r>
       <r>   -6.0323    1.0000 </r>
       <r>   -5.9379    1.0000 </r>
       <r>   -5.9375    1.0000 </r>
       <r>   -5.8078    1.0000 </r>
       <r>   -5.8064    1.0000 </r>
       <r>   -5.0881    1.0000 </r>
       <r>   -5.0559    1.0000 </r>
       <r>   -5.0549    1.0000 </r>
       <r>   -2.6958    0.0000 </r>
       <r>   -2.6940    0.0000 </r>
       <r>   -2.4115    0.0000 </r>
       <r>   -2.4051    0.0000 </r>
       <r>   -1.8775    0.0000 </r>
       <r>   -1.2458    0.0000 </r>
       <r>   -1.2454    0.0000 </r>
       <r>   -1.2433    0.0000 </r>
       <r>   -1.1402    0.0000 </r>
       <r>   -0.7616    0.0000 </r>
       <r>   -0.7519    0.0000 </r>
       <r>   -0.5342    0.0000 </r>
       <r>   -0.4564    0.0000 </r>
       <r>   -0.1798    0.0000 </r>
       <r>   -0.1773    0.0000 </r>
       <r>   -0.1569    0.0000 </r>
       <r>   -0.1540    0.0000 </r>
       <r>   -0.1402    0.0000 </r>
       <r>    0.3952    0.0000 </r>
       <r>    0.4677    0.0000 </r>
       <r>    0.4890    0.0000 </r>
       <r>    0.5113    0.0000 </r>
       <r>    0.5544    0.0000 </r>
       <r>    0.6352    0.0000 </r>
       <r>    0.6377    0.0000 </r>
       <r>    0.6727    0.0000 </r>
       <r>    0.6787    0.0000 </r>
       <r>    0.7192    0.0000 </r>
       <r>    0.7231    0.0000 </r>
       <r>    0.7436    0.0000 </r>
       <r>    0.7560    0.0000 </r>
       <r>    0.8373    0.0000 </r>
       <r>    0.8770    0.0000 </r>
       <r>    0.8780    0.0000 </r>
       <r>    0.9344    0.0000 </r>
       <r>    0.9597    0.0000 </r>
       <r>    0.9748    0.0000 </r>
       <r>    0.9800    0.0000 </r>
       <r>    1.0115    0.0000 </r>
       <r>    1.0173    0.0000 </r>
       <r>    1.0583    0.0000 </r>
       <r>    1.0676    0.0000 </r>
       <r>    1.0823    0.0000 </r>
      </set>
      <set comment="kpoint 4">
       <r>  -26.0118    1.0000 </r>
       <r>  -26.0074    1.0000 </r>
       <r>  -25.9956    1.0000 </r>
       <r>  -25.9935    1.0000 </r>
       <r>  -25.9908    1.0000 </r>
       <r>  -25.9891    1.0000 </r>
       <r>  -23.6994    1.0000 </r>
       <r>  -23.6982    1.0000 </r>
       <r>  -23.6932    1.0000 </r>
       <r>  -23.6011    1.0000 </r>
       <r>  -23.6000    1.0000 </r>
       <r>  -23.5956    1.0000 </r>
       <r>  -21.9245    1.0000 </r>
       <r>  -21.8864    1.0000 </r>
       <r>  -21.0642    1.0000 </r>
       <r>  -21.0624    1.0000 </r>
       <r>  -20.9440    1.0000 </r>
       <r>  -19.6355    1.0000 </r>
       <r>  -19.6318    1.0000 </r>
       <r>  -19.3234    1.0000 </r>
       <r>  -19.3166    1.0000 </r>
       <r>  -18.6930    1.0000 </r>
       <r>  -18.5694    1.0000 </r>
       <r>  -18.5689    1.0000 </r>
       <r>  -18.5122    1.0000 </r>
       <r>  -18.3022    1.0000 </r>
       <r>  -18.2987    1.0000 </r>
       <r>  -16.8179    1.0000 </r>
       <r>  -16.8165    1.0000 </r>
       <r>  -16.7871    1.0000 </r>
       <r>  -15.9805    1.0000 </r>
       <r>  -15.9746    1.0000 </r>
       <r>  -15.6975    1.0000 </r>
       <r>  -15.6961    1.0000 </r>
       <r>  -15.6397    1.0000 </r>
       <r>  -15.3464    1.0000 </r>
       <r>  -15.0787    1.0000 </r>
       <r>  -15.0629    1.0000 </r>
       <r>  -14.6498    1.0000 </r>
       <r>  -14.6431    1.0000 </r>
       <r>  -14.3906    1.0000 </r>
       <r>  -14.2288    1.0000 </r>
       <r>  -13.6746    1.0000 </r>
       <r>  -13.6722    1.0000 </r>
       <r>  -13.6405    1.0000 </r>
       <r>  -13.2928    1.0000 </r>
       <r>  -13.2912    1.0000 </r>
       <r>  -13.1881    1.0000 </r>
       <r>  -13.1840    1.0000 </r>
       <r>  -13.0461    1.0000 </r>
       <r>  -12.9414    1.0000 </r>
       <r>  -12.2701    1.0000 </r>
       <r>  -12.0270    1.0000 </r>
       <r>  -11.5825    1.0000 </r>
       <r>  -11.5802    1.0000 </r>
       <r>  -11.4778    1.0000 </r>
       <r>  -11.4664    1.0000 </r>
       <r>  -11.4642    1.0000 </r>
       <r>  -11.2892    1.0000 </r>
       <r>  -11.0046    1.0000 </r>
       <r>  -10.9381    1.0000 </r>
       <r>  -10.8066    1.0000 </r>
       <r>  -10.8018    1.0000 </r>
       <r>  -10.7694    1.0000 </r>
       <r>  -10.7653    1.0000 </r>
       <r>  -10.7268    1.0000 </r>
       <r>  -10.6217    1.0000 </r>
       <r>  -10.6169    1.0000 </r>
       <r>  -10.5727    1.0000 </r>
       <r>  -10.5723    1.0000 </r>
       <r>  -10.5179    1.0000 </r>
       <r>  -10.2897    1.0000 </r>
       <r>  -10.2602    1.0000 </r>
       <r>  -10.2566    1.0000 </r>
       <r>  -10.2307    1.0000 </r>
       <r>  -10.2300    1.0000 </r>
       <r>  -10.0330    1.0000 </r>
       <r>   -9.8624    1.0000 </r>
       <r>   -9.8584    1.0000 </r>
       <r>   -9.7706    1.0000 </r>
       <r>   -9.7365    1.0000 </r>
       <r>   -9.5419    1.0000 </r>
       <r>   -9.5404    1.0000 </r>
       <r>   -9.4901    1.0000 </r>
       <r>   -9.3315    1.0000 </r>
       <r>   -9.2545    1.0000 </r>
       <r>   -9.2124    1.0000 </r>
       <r>   -8.9229    1.0000 </r>
       <r>   -8.9217    1.0000 </r>
       <r>   -8.9041    1.0000 </r>
       <r>   -8.9019    1.0000 </r>
       <r>   -8.6232    1.0000 </r>
       <r>   -8.3272    1.0000 </r>
       <r>   -8.3271    1.0000 </r>
       <r>   -8.3261    1.0000 </r>
       <r>   -8.1962    1.0000 </r>
       <r>   -8.1900    1.0000 </r>
       <r>   -7.9064    1.0000 </r>
       <r>   -6.9157    1.0000 </r>
       <r>   -6.9151    1.0000 </r>
       <r>   -6.8073    1.0000 </r>
       <r>   -6.7641    1.0000 </r>
       <r>   -6.7606    1.0000 </r>
       <r>   -6.6602    1.0000 </r>
       <r>   -6.6573    1.0000 </r>
       <r>   -6.3437    1.0000 </r>
       <r>   -6.3392    1.0000 </r>
       <r>   -6.3385    1.0000 </r>
       <r>   -6.1396    1.0000 </r>
       <r>   -6.0343    1.0000 </r>
       <r>   -5.9378    1.0000 </r>
       <r>   -5.9355    1.0000 </r>
       <r>   -5.8084    1.0000 </r>
       <r>   -5.8064    1.0000 </r>
       <r>   -5.0878    1.0000 </r>
       <r>   -5.0561    1.0000 </r>
       <r>   -5.0549    1.0000 </r>
       <r>   -2.6946    0.0000 </r>
       <r>   -2.6938    0.0000 </r>
       <r>   -2.4154    0.0000 </r>
       <r>   -2.4051    0.0000 </r>
       <r>   -1.8717    0.0000 </r>
       <r>   -1.2458    0.0000 </r>
       <r>   -1.2455    0.0000 </r>
       <r>   -1.2433    0.0000 </r>
       <r>   -1.1507    0.0000 </r>
       <r>   -0.7616    0.0000 </r>
       <r>   -0.7418    0.0000 </r>
       <r>   -0.5336    0.0000 </r>
       <r>   -0.4572    0.0000 </r>
       <r>   -0.1828    0.0000 </r>
       <r>   -0.1805    0.0000 </r>
       <r>   -0.1533    0.0000 </r>
       <r>   -0.1508    0.0000 </r>
       <r>   -0.1425    0.0000 </r>
       <r>    0.3961    0.0000 </r>
       <r>    0.4670    0.0000 </r>
       <r>    0.4867    0.0000 </r>
       <r>    0.5121    0.0000 </r>
       <r>    0.5507    0.0000 </r>
       <r>    0.6306    0.0000 </r>
       <r>    0.6349    0.0000 </r>
       <r>    0.6724    0.0000 </r>
       <r>    0.6816    0.0000 </r>
       <r>    0.7189    0.0000 </r>
       <r>    0.7248    0.0000 </r>
       <r>    0.7446    0.0000 </r>
       <r>    0.7603    0.0000 </r>
       <r>    0.8395    0.0000 </r>
       <r>    0.8766    0.0000 </r>
       <r>    0.8779    0.0000 </r>
       <r>    0.9341    0.0000 </r>
       <r>    0.9577    0.0000 </r>
       <r>    0.9756    0.0000 </r>
       <r>    0.9796    0.0000 </r>
       <r>    1.0060    0.0000 </r>
       <r>    1.0176    0.0000 </r>
       <r>    1.0525    0.0000 </r>
       <r>    1.0745    0.0000 </r>
       <r>    1.0870    0.0000 </r>
      </set>
      <set comment="kpoint 5">
       <r>  -26.0118    1.0000 </r>
       <r>  -26.0074    1.0000 </r>
       <r>  -25.9955    1.0000 </r>
       <r>  -25.9935    1.0000 </r>
       <r>  -25.9908    1.0000 </r>
       <r>  -25.9891    1.0000 </r>
       <r>  -23.6994    1.0000 </r>
       <r>  -23.6982    1.0000 </r>
       <r>  -23.6932    1.0000 </r>
       <r>  -23.6011    1.0000 </r>
       <r>  -23.6000    1.0000 </r>
       <r>  -23.5957    1.0000 </r>
       <r>  -21.9241    1.0000 </r>
       <r>  -21.8869    1.0000 </r>
       <r>  -21.0642    1.0000 </r>
       <r>  -21.0612    1.0000 </r>
       <r>  -20.9453    1.0000 </r>
       <r>  -19.6355    1.0000 </r>
       <r>  -19.6291    1.0000 </r>
       <r>  -19.3279    1.0000 </r>
       <r>  -19.3166    1.0000 </r>
       <r>  -18.6892    1.0000 </r>
       <r>  -18.5696    1.0000 </r>
       <r>  -18.5689    1.0000 </r>
       <r>  -18.5113    1.0000 </r>
       <r>  -18.3049    1.0000 </r>
       <r>  -18.2987    1.0000 </r>
       <r>  -16.8179    1.0000 </r>
       <r>  -16.8163    1.0000 </r>
       <r>  -16.7875    1.0000 </r>
       <r>  -15.9806    1.0000 </r>
       <r>  -15.9709    1.0000 </r>
       <r>  -15.6987    1.0000 </r>
       <r>  -15.6960    1.0000 </r>
       <r>  -15.6390    1.0000 </r>
       <r>  -15.3579    1.0000 </r>
       <r>  -15.0793    1.0000 </r>
       <r>  -15.0520    1.0000 </r>
       <r>  -14.6527    1.0000 </r>
       <r>  -14.6426    1.0000 </r>
       <r>  -14.3881    1.0000 </r>
       <r>  -14.2291    1.0000 </r>
       <r>  -13.6759    1.0000 </r>
       <r>  -13.6728    1.0000 </r>
       <r>  -13.6427    1.0000 </r>
       <r>  -13.2924    1.0000 </r>
       <r>  -13.2897    1.0000 </r>
       <r>  -13.1891    1.0000 </r>
       <r>  -13.1838    1.0000 </r>
       <r>  -13.0443    1.0000 </r>
       <r>  -12.9420    1.0000 </r>
       <r>  -12.2677    1.0000 </r>
       <r>  -12.0302    1.0000 </r>
       <r>  -11.5838    1.0000 </r>
       <r>  -11.5793    1.0000 </r>
       <r>  -11.4759    1.0000 </r>
       <r>  -11.4671    1.0000 </r>
       <r>  -11.4629    1.0000 </r>
       <r>  -11.2908    1.0000 </r>
       <r>  -11.0042    1.0000 </r>
       <r>  -10.9396    1.0000 </r>
       <r>  -10.8059    1.0000 </r>
       <r>  -10.8009    1.0000 </r>
       <r>  -10.7686    1.0000 </r>
       <r>  -10.7647    1.0000 </r>
       <r>  -10.7272    1.0000 </r>
       <r>  -10.6233    1.0000 </r>
       <r>  -10.6169    1.0000 </r>
       <r>  -10.5727    1.0000 </r>
       <r>  -10.5721    1.0000 </r>
       <r>  -10.5191    1.0000 </r>
       <r>  -10.2901    1.0000 </r>
       <r>  -10.2600    1.0000 </r>
       <r>  -10.2530    1.0000 </r>
       <r>  -10.2313    1.0000 </r>
       <r>  -10.2298    1.0000 </r>
       <r>  -10.0355    1.0000 </r>
       <r>   -9.8630    1.0000 </r>
       <r>   -9.8570    1.0000 </r>
       <r>   -9.7694    1.0000 </r>
       <r>   -9.7359    1.0000 </r>
       <r>   -9.5414    1.0000 </r>
       <r>   -9.5396    1.0000 </r>
       <r>   -9.4906    1.0000 </r>
       <r>   -9.3491    1.0000 </r>
       <r>   -9.2544    1.0000 </r>
       <r>   -9.1937    1.0000 </r>
       <r>   -8.9235    1.0000 </r>
       <r>   -8.9224    1.0000 </r>
       <r>   -8.9037    1.0000 </r>
       <r>   -8.9012    1.0000 </r>
       <r>   -8.6298    1.0000 </r>
       <r>   -8.3272    1.0000 </r>
       <r>   -8.3271    1.0000 </r>
       <r>   -8.3261    1.0000 </r>
       <r>   -8.1962    1.0000 </r>
       <r>   -8.1849    1.0000 </r>
       <r>   -7.9086    1.0000 </r>
       <r>   -6.9153    1.0000 </r>
       <r>   -6.9148    1.0000 </r>
       <r>   -6.8103    1.0000 </r>
       <r>   -6.7638    1.0000 </r>
       <r>   -6.7577    1.0000 </r>
       <r>   -6.6609    1.0000 </r>
       <r>   -6.6575    1.0000 </r>
       <r>   -6.3437    1.0000 </r>
       <r>   -6.3392    1.0000 </r>
       <r>   -6.3385    1.0000 </r>
       <r>   -6.1389    1.0000 </r>
       <r>   -6.0368    1.0000 </r>
       <r>   -5.9378    1.0000 </r>
       <r>   -5.9328    1.0000 </r>
       <r>   -5.8093    1.0000 </r>
       <r>   -5.8064    1.0000 </r>
       <r>   -5.0875    1.0000 </r>
       <r>   -5.0564    1.0000 </r>
       <r>   -5.0550    1.0000 </r>
       <r>   -2.6941    0.0000 </r>
       <r>   -2.6923    0.0000 </r>
       <r>   -2.4206    0.0000 </r>
       <r>   -2.4051    0.0000 </r>
       <r>   -1.8637    0.0000 </r>
       <r>   -1.2458    0.0000 </r>
       <r>   -1.2456    0.0000 </r>
       <r>   -1.2434    0.0000 </r>
       <r>   -1.1646    0.0000 </r>
       <r>   -0.7616    0.0000 </r>
       <r>   -0.7285    0.0000 </r>
       <r>   -0.5328    0.0000 </r>
       <r>   -0.4584    0.0000 </r>
       <r>   -0.1863    0.0000 </r>
       <r>   -0.1839    0.0000 </r>
       <r>   -0.1499    0.0000 </r>
       <r>   -0.1484    0.0000 </r>
       <r>   -0.1442    0.0000 </r>
       <r>    0.3972    0.0000 </r>
       <r>    0.4660    0.0000 </r>
       <r>    0.4837    0.0000 </r>
       <r>    0.5132    0.0000 </r>
       <r>    0.5461    0.0000 </r>
       <r>    0.6249    0.0000 </r>
       <r>    0.6312    0.0000 </r>
       <r>    0.6715    0.0000 </r>
       <r>    0.6848    0.0000 </r>
       <r>    0.7183    0.0000 </r>
       <r>    0.7277    0.0000 </r>
       <r>    0.7458    0.0000 </r>
       <r>    0.7662    0.0000 </r>
       <r>    0.8423    0.0000 </r>
       <r>    0.8761    0.0000 </r>
       <r>    0.8777    0.0000 </r>
       <r>    0.9335    0.0000 </r>
       <r>    0.9547    0.0000 </r>
       <r>    0.9756    0.0000 </r>
       <r>    0.9808    0.0000 </r>
       <r>    1.0000    0.0000 </r>
       <r>    1.0161    0.0000 </r>
       <r>    1.0497    0.0000 </r>
       <r>    1.0841    0.0000 </r>
       <r>    1.0926    0.0000 </r>
      </set>
      <set comment="kpoint 6">
       <r>  -26.0118    1.0000 </r>
       <r>  -26.0075    1.0000 </r>
       <r>  -25.9955    1.0000 </r>
       <r>  -25.9935    1.0000 </r>
       <r>  -25.9909    1.0000 </r>
       <r>  -25.9891    1.0000 </r>
       <r>  -23.6993    1.0000 </r>
       <r>  -23.6981    1.0000 </r>
       <r>  -23.6933    1.0000 </r>
       <r>  -23.6011    1.0000 </r>
       <r>  -23.6000    1.0000 </r>
       <r>  -23.5958    1.0000 </r>
       <r>  -21.9236    1.0000 </r>
[...]
       <r>   -27.3712     0.0000     0.0000 </r>
       <r>   -27.2715     0.0000     0.0000 </r>
       <r>   -27.1718     0.0000     0.0000 </r>
       <r>   -27.0721     0.0000     0.0000 </r>
       <r>   -26.9725     0.0000     0.0000 </r>
       <r>   -26.8728     0.0000     0.0000 </r>
       <r>   -26.7731     0.0000     0.0000 </r>
       <r>   -26.6734     0.0000     0.0000 </r>
       <r>   -26.5737     0.0000     0.0000 </r>
       <r>   -26.4741     0.0000     0.0000 </r>
       <r>   -26.3744     0.0000     0.0000 </r>
       <r>   -26.2747     0.0000     0.0000 </r>
       <r>   -26.1750     0.0000     0.0000 </r>
       <r>   -26.0753     0.0000     0.0000 </r>
       <r>   -25.9756   119.3610    11.8981 </r>
       <r>   -25.8760     0.0000    12.0000 </r>
       <r>   -25.7763     0.0000    12.0000 </r>
       <r>   -25.6766     0.0000    12.0000 </r>
       <r>   -25.5769     0.0000    12.0000 </r>
       <r>   -25.4772     0.0000    12.0000 </r>
       <r>   -25.3776     0.0000    12.0000 </r>
       <r>   -25.2779     0.0000    12.0000 </r>
       <r>   -25.1782     0.0000    12.0000 </r>
       <r>   -25.0785     0.0000    12.0000 </r>
       <r>   -24.9788     0.0000    12.0000 </r>
       <r>   -24.8791     0.0000    12.0000 </r>
       <r>   -24.7795     0.0000    12.0000 </r>
       <r>   -24.6798     0.0000    12.0000 </r>
       <r>   -24.5801     0.0000    12.0000 </r>
       <r>   -24.4804     0.0000    12.0000 </r>
       <r>   -24.3807     0.0000    12.0000 </r>
       <r>   -24.2811     0.0000    12.0000 </r>
       <r>   -24.1814     0.0000    12.0000 </r>
       <r>   -24.0817     0.0000    12.0000 </r>
       <r>   -23.9820     0.0000    12.0000 </r>
       <r>   -23.8823     0.0000    12.0000 </r>
       <r>   -23.7826     0.0000    12.0000 </r>
       <r>   -23.6830    58.4500    17.8264 </r>
       <r>   -23.5833    59.2117    23.9023 </r>
       <r>   -23.4836     0.0000    24.0000 </r>
       <r>   -23.3839     0.0000    24.0000 </r>
       <r>   -23.2842     0.0000    24.0000 </r>
       <r>   -23.1846     0.0000    24.0000 </r>
       <r>   -23.0849     0.0000    24.0000 </r>
       <r>   -22.9852     0.0000    24.0000 </r>
       <r>   -22.8855     0.0000    24.0000 </r>
       <r>   -22.7858     0.0000    24.0000 </r>
       <r>   -22.6862     0.0000    24.0000 </r>
       <r>   -22.5865     0.0000    24.0000 </r>
       <r>   -22.4868     0.0000    24.0000 </r>
       <r>   -22.3871     0.0000    24.0000 </r>
       <r>   -22.2874     0.0000    24.0000 </r>
       <r>   -22.1877     0.0000    24.0000 </r>
       <r>   -22.0881     0.0000    24.0000 </r>
       <r>   -21.9884     0.0000    24.0000 </r>
       <r>   -21.8887    35.3840    27.5271 </r>
       <r>   -21.7890     0.0000    28.0000 </r>
       <r>   -21.6893     0.0000    28.0000 </r>
       <r>   -21.5897     0.0000    28.0000 </r>
       <r>   -21.4900     0.0000    28.0000 </r>
       <r>   -21.3903     0.0000    28.0000 </r>
       <r>   -21.2906     0.0000    28.0000 </r>
       <r>   -21.1909     0.0000    28.0000 </r>
       <r>   -21.0912     0.0014    28.0001 </r>
       <r>   -20.9916    44.6943    32.4553 </r>
       <r>   -20.8919     8.6934    34.0000 </r>
       <r>   -20.7922     0.0000    34.0000 </r>
       <r>   -20.6925     0.0000    34.0000 </r>
       <r>   -20.5928     0.0000    34.0000 </r>
       <r>   -20.4932     0.0000    34.0000 </r>
       <r>   -20.3935     0.0000    34.0000 </r>
       <r>   -20.2938     0.0000    34.0000 </r>
       <r>   -20.1941     0.0000    34.0000 </r>
       <r>   -20.0944     0.0000    34.0000 </r>
       <r>   -19.9948     0.0000    34.0000 </r>
       <r>   -19.8951     0.0000    34.0000 </r>
       <r>   -19.7954     0.0000    34.0000 </r>
       <r>   -19.6957     0.0000    34.0000 </r>
       <r>   -19.5960    26.7935    36.6708 </r>
       <r>   -19.4963    11.5706    37.9868 </r>
       <r>   -19.3967     9.7904    39.2093 </r>
       <r>   -19.2970    26.6962    41.9945 </r>
       <r>   -19.1973     0.0000    42.0000 </r>
       <r>   -19.0976     0.0000    42.0000 </r>
       <r>   -18.9979     0.0000    42.0000 </r>
       <r>   -18.8983     0.0000    42.0000 </r>
       <r>   -18.7986     0.0000    42.0000 </r>
       <r>   -18.6989     0.9680    42.0965 </r>
       <r>   -18.5992    12.8853    43.6845 </r>
       <r>   -18.4995    37.2487    48.6134 </r>
       <r>   -18.3998    15.3686    50.4654 </r>
       <r>   -18.3002    17.2678    52.6880 </r>
       <r>   -18.2005     0.0000    54.0000 </r>
       <r>   -18.1008     0.0000    54.0000 </r>
       <r>   -18.0011     0.0000    54.0000 </r>
       <r>   -17.9014     0.0000    54.0000 </r>
       <r>   -17.8018     0.0000    54.0000 </r>
       <r>   -17.7021     0.0000    54.0000 </r>
       <r>   -17.6024     0.0000    54.0000 </r>
       <r>   -17.5027     0.0000    54.0000 </r>
       <r>   -17.4030     0.0000    54.0000 </r>
       <r>   -17.3034     0.0000    54.0000 </r>
       <r>   -17.2037     0.0000    54.0000 </r>
       <r>   -17.1040     0.0000    54.0000 </r>
       <r>   -17.0043     0.0000    54.0000 </r>
       <r>   -16.9046     0.0000    54.0000 </r>
       <r>   -16.8049    38.3013    57.8179 </r>
       <r>   -16.7053     0.0000    60.0000 </r>
       <r>   -16.6056     0.0000    60.0000 </r>
       <r>   -16.5059     0.0000    60.0000 </r>
       <r>   -16.4062     0.0000    60.0000 </r>
       <r>   -16.3065     0.0000    60.0000 </r>
       <r>   -16.2069     0.0000    60.0000 </r>
       <r>   -16.1072     0.0000    60.0000 </r>
       <r>   -16.0075     0.0032    60.0003 </r>
       <r>   -15.9078    28.0189    62.7933 </r>
       <r>   -15.8081    10.2370    63.9538 </r>
       <r>   -15.7084    13.2444    65.5203 </r>
       <r>   -15.6088    14.8060    69.2098 </r>
       <r>   -15.5091    12.5939    71.0889 </r>
       <r>   -15.4094     3.0202    71.5011 </r>
       <r>   -15.3097     4.3450    71.9998 </r>
       <r>   -15.2100     0.0000    72.0000 </r>
       <r>   -15.1104     0.0949    72.0095 </r>
       <r>   -15.0107    16.7277    74.4682 </r>
       <r>   -14.9110     3.1780    74.8835 </r>
       <r>   -14.8113     9.3600    75.8997 </r>
       <r>   -14.7116    10.0300    77.1332 </r>
       <r>   -14.6119    27.2983    79.9879 </r>
       <r>   -14.5123     0.0000    80.0000 </r>
       <r>   -14.4126     0.0068    80.0007 </r>
       <r>   -14.3129    11.5891    81.2887 </r>
       <r>   -14.2132    22.0048    83.9935 </r>
       <r>   -14.1135     0.0000    84.0000 </r>
       <r>   -14.0139     0.0000    84.0000 </r>
       <r>   -13.9142     0.0000    84.0000 </r>
       <r>   -13.8145     0.0000    84.0000 </r>
       <r>   -13.7148     0.4299    84.0429 </r>
       <r>   -13.6151    41.7921    89.9999 </r>
       <r>   -13.5155     0.0000    90.0000 </r>
       <r>   -13.4158     0.0000    90.0000 </r>
       <r>   -13.3161     0.0043    90.0004 </r>
       <r>   -13.2164    48.3217    94.8172 </r>
       <r>   -13.1167    25.7468    98.0000 </r>
       <r>   -13.0170     7.8728    98.7848 </r>
       <r>   -12.9174    27.4153   101.9999 </r>
       <r>   -12.8177     0.0000   102.0000 </r>
       <r>   -12.7180     0.0000   102.0000 </r>
       <r>   -12.6183     0.0000   102.0000 </r>
       <r>   -12.5186     0.0000   102.0000 </r>
       <r>   -12.4190     0.0000   102.0000 </r>
       <r>   -12.3193     0.0000   102.0000 </r>
       <r>   -12.2196     8.6878   102.8660 </r>
       <r>   -12.1199    16.0120   104.6629 </r>
       <r>   -12.0202     8.9306   105.9236 </r>
       <r>   -11.9205     0.0000   106.0000 </r>
       <r>   -11.8209     0.0000   106.0000 </r>
       <r>   -11.7212     0.0000   106.0000 </r>
       <r>   -11.6215     0.1579   106.0157 </r>
       <r>   -11.5218    31.6365   110.1872 </r>
       <r>   -11.4221    42.2620   114.8129 </r>
       <r>   -11.3225    21.6699   117.1602 </r>
       <r>   -11.2228     5.6836   118.0000 </r>
       <r>   -11.1231     0.0000   118.0000 </r>
       <r>   -11.0234     0.0189   118.0019 </r>
       <r>   -10.9237    36.3502   121.9905 </r>
       <r>   -10.8241     0.0496   122.0049 </r>
       <r>   -10.7244    84.5049   130.8258 </r>
       <r>   -10.6247    23.2649   133.9859 </r>
       <r>   -10.5250    55.5763   141.5399 </r>
       <r>   -10.4253     0.0000   142.0000 </r>
       <r>   -10.3256     0.0000   142.0000 </r>
       <r>   -10.2260    76.8917   149.6647 </r>
       <r>   -10.1263    14.8310   152.2118 </r>
       <r>   -10.0266    11.2457   153.9212 </r>
       <r>    -9.9269     0.0000   154.0000 </r>
       <r>    -9.8272    30.4519   157.0355 </r>
       <r>    -9.7276    27.4575   160.4705 </r>
       <r>    -9.6279    10.6596   161.7959 </r>
       <r>    -9.5282    31.5581   165.2125 </r>
       <r>    -9.4285    20.6846   169.4292 </r>
       <r>    -9.3288     2.9081   169.7899 </r>
       <r>    -9.2291    23.0115   172.1605 </r>
       <r>    -9.1295     2.6141   172.4939 </r>
       <r>    -9.0298     2.6226   172.8281 </r>
       <r>    -8.9301    24.7148   175.3637 </r>
       <r>    -8.8304    43.5290   182.3391 </r>
       <r>    -8.7307     6.9932   183.1972 </r>
       <r>    -8.6311     4.4924   183.7146 </r>
       <r>    -8.5314     0.0000   184.0000 </r>
       <r>    -8.4317     0.0000   184.0000 </r>
       <r>    -8.3320    13.5523   185.3509 </r>
       <r>    -8.2323     0.0000   190.0000 </r>
       <r>    -8.1326    26.7386   192.6653 </r>
       <r>    -8.0330    10.2104   193.8178 </r>
       <r>    -7.9333    12.5549   195.3516 </r>
       <r>    -7.8336     3.6777   196.0000 </r>
       <r>    -7.7339     0.0000   196.0000 </r>
       <r>    -7.6342     0.0000   196.0000 </r>
       <r>    -7.5346     0.0000   196.0000 </r>
       <r>    -7.4349     0.0000   196.0000 </r>
       <r>    -7.3352     0.0000   196.0000 </r>
       <r>    -7.2355     0.0000   196.0000 </r>
       <r>    -7.1358     0.0000   196.0000 </r>
       <r>    -7.0362     0.0000   196.0000 </r>
       <r>    -6.9365     0.0524   196.0052 </r>
       <r>    -6.8368    46.8744   201.2758 </r>
       <r>    -6.7371    30.2640   204.6169 </r>
       <r>    -6.6374    50.4732   209.9980 </r>
       <r>    -6.5377     0.0000   210.0000 </r>
       <r>    -6.4381     0.0000   210.0000 </r>
       <r>    -6.3384    35.9954   213.5881 </r>
       <r>    -6.2387     0.0000   216.0000 </r>
       <r>    -6.1390     2.8826   216.2873 </r>
       <r>    -6.0393    26.9770   219.6894 </r>
       <r>    -5.9397     9.8972   220.9866 </r>
       <r>    -5.8400    21.7452   224.6676 </r>
       <r>    -5.7403    26.7504   228.0000 </r>
       <r>    -5.6406     0.0000   228.0000 </r>
       <r>    -5.5409     0.0000   228.0000 </r>
       <r>    -5.4412     0.0000   228.0000 </r>
       <r>    -5.3416     0.0000   228.0000 </r>
       <r>    -5.2419     0.0000   228.0000 </r>
       <r>    -5.1422     0.0000   228.0000 </r>
       <r>    -5.0425    59.2829   233.9094 </r>
       <r>    -4.9428     0.0000   234.0000 </r>
       <r>    -4.8432     0.0000   234.0000 </r>
       <r>    -4.7435     0.0000   234.0000 </r>
       <r>    -4.6438     0.0000   234.0000 </r>
       <r>    -4.5441     0.0000   234.0000 </r>
       <r>    -4.4444     0.0000   234.0000 </r>
       <r>    -4.3448     0.0000   234.0000 </r>
       <r>    -4.2451     0.0000   234.0000 </r>
       <r>    -4.1454     0.0000   234.0000 </r>
       <r>    -4.0457     0.0000   234.0000 </r>
       <r>    -3.9460     0.0000   234.0000 </r>
       <r>    -3.8463     0.0000   234.0000 </r>
       <r>    -3.7467     0.0000   234.0000 </r>
       <r>    -3.6470     0.0000   234.0000 </r>
       <r>    -3.5473     0.0000   234.0000 </r>
       <r>    -3.4476     0.0000   234.0000 </r>
       <r>    -3.3479     0.0000   234.0000 </r>
       <r>    -3.2483     0.0000   234.0000 </r>
       <r>    -3.1486     0.0000   234.0000 </r>
       <r>    -3.0489     0.0000   234.0000 </r>
       <r>    -2.9492     0.0000   234.0000 </r>
       <r>    -2.8495     0.0000   234.0000 </r>
       <r>    -2.7498     0.0000   234.0000 </r>
       <r>    -2.6502    28.6861   236.8595 </r>
       <r>    -2.5505    14.4377   238.5061 </r>
       <r>    -2.4508     5.1454   239.4796 </r>
       <r>    -2.3511    23.7421   242.0000 </r>
       <r>    -2.2514     0.0000   242.0000 </r>
       <r>    -2.1518     0.0000   242.0000 </r>
       <r>    -2.0521     0.0000   242.0000 </r>
       <r>    -1.9524     0.0000   242.0000 </r>
       <r>    -1.8527     3.4887   242.3478 </r>
       <r>    -1.7530     3.2007   242.7524 </r>
       <r>    -1.6534     4.6319   243.2618 </r>
       <r>    -1.5537     4.7205   243.9706 </r>
       <r>    -1.4540     4.9021   244.5887 </r>
       <r>    -1.3543     2.6845   245.1676 </r>
       <r>    -1.2546     7.2427   245.9220 </r>
       <r>    -1.1549     3.2958   251.7620 </r>
       <r>    -1.0553     1.3363   252.0000 </r>
       <r>    -0.9556     0.0000   252.0000 </r>
       <r>    -0.8559     0.0000   252.0000 </r>
       <r>    -0.7562    16.4679   253.6415 </r>
       <r>    -0.6565     2.6408   254.5299 </r>
       <r>    -0.5569     2.9302   254.8588 </r>
       <r>    -0.4572    41.0070   259.0546 </r>
       <r>    -0.3575     5.9410   260.1256 </r>
       <r>    -0.2578     8.1987   261.0840 </r>
       <r>    -0.1581    44.7429   265.6607 </r>
       <r>    -0.0584    29.0847   269.9998 </r>
       <r>     0.0412     0.0000   270.0000 </r>
       <r>     0.1409     0.0000   270.0000 </r>
       <r>     0.2406     0.0000   270.0000 </r>
       <r>     0.3403     0.0000   270.0000 </r>
       <r>     0.4400    23.6818   272.3606 </r>
       <r>     0.5396    43.7880   279.3655 </r>
       <r>     0.6393    41.5113   284.9048 </r>
       <r>     0.7390    44.9960   289.9187 </r>
       <r>     0.8387    35.3076   295.7867 </r>
       <r>     0.9384    77.7850   304.9541 </r>
       <r>     1.0381    63.7696   313.1905 </r>
       <r>     1.1377    39.3511   318.1567 </r>
       <r>     1.2374     6.6864   320.0000 </r>
       <r>     1.3371     0.0000   320.0000 </r>
       <r>     1.4368     0.0000   320.0000 </r>
       <r>     1.5365     0.0000   320.0000 </r>
       <r>     1.6361     0.0000   320.0000 </r>
       <r>     1.7358     0.0000   320.0000 </r>
       <r>     1.8355     0.0000   320.0000 </r>
       <r>     1.9352     0.0000   320.0000 </r>
       <r>     2.0349     0.0000   320.0000 </r>
       <r>     2.1345     0.0000   320.0000 </r>
       <r>     2.2342     0.0000   320.0000 </r>
       <r>     2.3339     0.0000   320.0000 </r>
       <r>     2.4336     0.0000   320.0000 </r>
       <r>     2.5333     0.0000   320.0000 </r>
      </set>
     </set>
    </array>
   </total>
  </dos>
 </calculation>
 <structure name="finalpos" >
  <crystal>
   <varray name="basis" >
    <v>      22.59017342       0.02015329       0.00000000 </v>
    <v>     -11.27767062      19.52775310       0.00000000 </v>
    <v>       0.00000000       0.00000000      20.00000000 </v>
   </varray>
   <i name="volume">   8827.25222288 </i>
   <varray name="rec_basis" >
    <v>       0.04424424       0.02555194       0.00000000 </v>
    <v>      -0.00004566       0.05118280       0.00000000 </v>
    <v>       0.00000000       0.00000000       0.05000000 </v>
   </varray>
  </crystal>
  <varray name="positions" >
   <v>       0.43169631       0.57229473       0.51442201 </v>
   <v>       0.13850843       0.55861897       0.51349747 </v>
   <v>       0.41803371       0.85185240       0.51420018 </v>
   <v>       0.56134061       0.41690988       0.48063456 </v>
   <v>       0.85390306       0.42989224       0.48020232 </v>
   <v>       0.57419090       0.13691229       0.48043016 </v>
   <v>       0.73282440       0.34739214       0.46984730 </v>
   <v>       0.68238784       0.27807633       0.46955287 </v>
   <v>       0.61305361       0.25824828       0.46953365 </v>
   <v>       0.59431985       0.30882809       0.46910597 </v>
   <v>       0.71300301       0.39702562       0.46947166 </v>
   <v>       0.80564558       0.36224379       0.47221032 </v>
   <v>       0.55506142       0.18531079       0.47148219 </v>
   <v>       0.25968663       0.64129067       0.52374336 </v>
   <v>       0.31005174       0.71063171       0.52462241 </v>
   <v>       0.37941770       0.73060327       0.52533464 </v>
   <v>       0.39832236       0.68014433       0.52589374 </v>
   <v>       0.27968719       0.59178113       0.52417076 </v>
   <v>       0.18682057       0.62635499       0.52080651 </v>
   <v>       0.43726537       0.80363471       0.52402620 </v>
   <v>       0.53302488       0.56540193       0.49619344 </v>
   <v>       0.56769840       0.52960301       0.48709121 </v>
   <v>       0.46203943       0.53149587       0.50656495 </v>
   <v>       0.02991508       0.45716446       0.49743015 </v>
   <v>       0.95953883       0.42271220       0.48852255 </v>
   <v>       0.06750121       0.52852765       0.50576099 </v>
   <v>       0.42539210       0.96045069       0.49573481 </v>
   <v>       0.46137803       0.03094305       0.48663613 </v>
   <v>       0.45897110       0.92299264       0.50642867 </v>
   <v>       0.64380269       0.37827295       0.46948086 </v>
   <v>       0.62879498       0.43628922       0.47145948 </v>
   <v>       0.34893779       0.61066761       0.52486922 </v>
   <v>       0.36411762       0.55276962       0.52289222 </v>
   <v>       0.53098730       0.45768896       0.48844680 </v>
   <v>       0.45999998       0.42376736       0.49879822 </v>
   <v>       0.42532558       0.45956479       0.50790687 </v>
   <v>       0.92492039       0.46001323       0.48801089 </v>
   <v>       0.96250540       0.53137901       0.49642238 </v>
   <v>       0.03289269       0.56583699       0.50530570 </v>
   <v>       0.53317155       0.06579147       0.48829343 </v>
   <v>       0.56674475       0.02832223       0.49896108 </v>
   <v>       0.53076359       0.95784128       0.50807402 </v>
   <v>       0.53941824       0.28994383       0.46818014 </v>
   <v>       0.74902352       0.45203231       0.46898397 </v>
   <v>       0.70133510       0.24200194       0.46911154 </v>
   <v>       0.45324344       0.69914076       0.52745071 </v>
   <v>       0.24377718       0.53674755       0.52411000 </v>
   <v>       0.29105595       0.74665949       0.52500532 </v>
   <v>       0.62257314       0.55634119       0.47905968 </v>
   <v>       0.56198898       0.62131803       0.49519573 </v>
   <v>       0.46460511       0.62333412       0.51041950 </v>
   <v>       0.93105763       0.36754007       0.48204284 </v>
   <v>       0.05639635       0.42774297       0.49786423 </v>
   <v>       0.15618008       0.52520277       0.51133420 </v>
   <v>       0.43484128       0.05934075       0.47843730 </v>
   <v>       0.36957976       0.93379299       0.49450263 </v>
   <v>       0.36717166       0.83386858       0.50914995 </v>
   <v>       0.43104488       0.36784317       0.49978077 </v>
   <v>       0.37043901       0.43278023       0.51589503 </v>
   <v>       0.52844464       0.36588464       0.48486371 </v>
   <v>       0.93607669       0.56085770       0.49603481 </v>
   <v>       0.06140724       0.62101078       0.51175088 </v>
   <v>       0.83620852       0.46324773       0.48307751 </v>
   <v>       0.62255405       0.05499206       0.50021777 </v>
   <v>       0.55728371       0.92943848       0.51633063 </v>
   <v>       0.62509688       0.15468061       0.48456084 </v>
   <v>       0.67524968       0.49652721       0.46638392 </v>
   <v>       0.81918086       0.31548138       0.46835216 </v>
   <v>       0.49495741       0.17182746       0.46654062 </v>
   <v>       0.31767271       0.49246121       0.52734717 </v>
   <v>       0.17325079       0.67313825       0.52373650 </v>
   <v>       0.49733384       0.81731766       0.53013396 </v>
  </varray>
 </structure>
</modeling>
