<?xml version="1.0" encoding="ISO-8859-1"?>
<modeling>
 <generator>
  <i name="program" type="string">vasp </i>
  <i name="version" type="string">5.4.4.18Apr17-6-g9f103f2a35  </i>
  <i name="subversion" type="string">(build Jun 07 2020 16:50:00) complex            parallel </i>
  <i name="platform" type="string">LinuxIFC </i>
  <i name="date" type="string">2023 02 18 </i>
  <i name="time" type="string">04:42:40 </i>
 </generator>
 <incar>
  <i type="string" name="SYSTEM">Simulation for cell shape cell volume r</i>
  <i type="int" name="ISTART">     1</i>
  <i type="string" name="PREC">high</i>
  <i type="string" name="ALGO">48</i>
  <i type="int" name="ICHARG">    11</i>
  <i type="int" name="NELM">   200</i>
  <i type="int" name="IBRION">    -1</i>
  <i name="EDIFF">      0.00001000</i>
  <i name="EDIFFG">     -0.01000000</i>
  <i type="int" name="NSW">     0</i>
  <i type="int" name="ISIF">     2</i>
  <i name="ENCUT">    500.00000000</i>
  <i name="POTIM">      0.30000000</i>
  <i type="string" name="LREAL">A</i>
  <i type="int" name="ISMEAR">     0</i>
  <i name="SIGMA">      0.01000000</i>
  <i type="int" name="NWRITE">     0</i>
  <i type="logical" name="LWAVE"> F  </i>
  <i type="logical" name="LCHARG"> F  </i>
  <v type="int" name="KPOINT_BSE">    -1     0     0     0</v>
  <i type="int" name="NELM">   200</i>
  <i type="string" name="GGA">PE</i>
 </incar>
 <structure name="primitive_cell" >
  <crystal>
   <varray name="basis" >
    <v>      14.87674846       0.00085915       0.00000000 </v>
    <v>       0.01505457      25.29649716       0.00000000 </v>
    <v>       0.88180846       0.50053845      20.00000000 </v>
   </varray>
   <i name="volume">   7526.59224306 </i>
   <varray name="rec_basis" >
    <v>       0.06721899      -0.00004000      -0.00296271 </v>
    <v>      -0.00000228       0.03953117      -0.00098924 </v>
    <v>       0.00000000       0.00000000       0.05000000 </v>
   </varray>
  </crystal>
  <varray name="positions" >
   <v>      -0.38727496      -0.28648009      -0.49875800 </v>
   <v>      -0.46765014      -0.31065333      -0.49151745 </v>
   <v>      -0.38956746      -0.23366761       0.49127426 </v>
   <v>       0.45283930      -0.28515696      -0.48997190 </v>
   <v>      -0.46567351      -0.20513578       0.48585584 </v>
   <v>      -0.30245929      -0.20566471       0.48771125 </v>
   <v>      -0.46861434      -0.36900397      -0.48611297 </v>
   <v>      -0.23512135      -0.26916653      -0.46127495 </v>
   <v>      -0.32783588      -0.37641377       0.48596801 </v>
   <v>       0.45764587      -0.23267845       0.49759952 </v>
   <v>      -0.22735056      -0.22986494      -0.48432068 </v>
   <v>      -0.38961778      -0.39789997       0.49980379 </v>
   <v>      -0.29257508      -0.15491424       0.45830017 </v>
   <v>       0.45146168      -0.39664632      -0.46891779 </v>
   <v>      -0.35052096      -0.13594268       0.43636979 </v>
   <v>       0.39026567      -0.37425191      -0.45776804 </v>
   <v>       0.37140900      -0.20349210       0.49729152 </v>
   <v>      -0.14523221      -0.20387669      -0.48469572 </v>
   <v>      -0.39101580      -0.45283253      -0.49823095 </v>
   <v>       0.30050473      -0.26267657      -0.44188371 </v>
   <v>      -0.20941818      -0.12958398       0.45635422 </v>
   <v>      -0.08879982      -0.22293649      -0.46112346 </v>
   <v>       0.45067367      -0.45160525      -0.46610805 </v>
   <v>      -0.32971806      -0.47442687       0.48812468 </v>
   <v>       0.42423463      -0.13738817       0.43814749 </v>
   <v>       0.29472920      -0.22499450      -0.46893721 </v>
   <v>       0.36438841      -0.15436047       0.46371074 </v>
   <v>      -0.13410323      -0.15311970       0.48547776 </v>
   <v>      -0.47085476      -0.48098276      -0.48133904 </v>
   <v>      -0.20237079      -0.09093057       0.43123168 </v>
   <v>       0.38838508      -0.47224816      -0.45111212 </v>
   <v>       0.21313545      -0.19810602      -0.46890529 </v>
   <v>       0.28191618      -0.12847450       0.46173965 </v>
   <v>      -0.04771160      -0.12429986       0.48801227 </v>
   <v>      -0.47239007       0.46063063      -0.48115324 </v>
   <v>       0.03810638      -0.20254487       0.46798574 </v>
   <v>      -0.33530541       0.45079774      -0.45068667 </v>
   <v>       0.20440487      -0.14970861       0.49529184 </v>
   <v>       0.15566618      -0.21405700      -0.43913809 </v>
   <v>      -0.39580186       0.43069031      -0.46560985 </v>
   <v>       0.27664663      -0.09141823       0.43311091 </v>
   <v>       0.03653380      -0.15027610       0.48409658 </v>
   <v>      -0.11318870      -0.04993171       0.49783055 </v>
   <v>       0.39024061       0.45518522       0.48799563 </v>
   <v>      -0.04779715      -0.06933485       0.49525630 </v>
   <v>       0.10090806      -0.21400675       0.46376376 </v>
   <v>       0.44982682       0.43308941      -0.49803753 </v>
   <v>       0.11672670      -0.12200983       0.49390368 </v>
   <v>      -0.39630616       0.37581899      -0.46803568 </v>
   <v>       0.03079903      -0.03912538       0.49964631 </v>
   <v>       0.44860468       0.37821149      -0.49959465 </v>
   <v>      -0.11737670       0.02657432      -0.49105762 </v>
   <v>       0.17505300      -0.04659559      -0.49121615 </v>
   <v>      -0.33647020       0.35302269      -0.45664311 </v>
   <v>       0.11217230      -0.06717123      -0.49894865 </v>
   <v>      -0.47417129       0.34878774      -0.48513065 </v>
   <v>      -0.20990185       0.07450602       0.43372333 </v>
   <v>       0.38847810       0.35723812       0.48658733 </v>
   <v>      -0.05357580       0.04749909      -0.49854857 </v>
   <v>       0.02799178       0.01953507       0.49987375 </v>
   <v>      -0.35809077       0.12027236       0.43866994 </v>
   <v>      -0.21863642       0.11038554       0.46243995 </v>
   <v>       0.17213884       0.03043903       0.49807965 </v>
   <v>       0.26917934       0.07408921       0.43228605 </v>
   <v>       0.41671719       0.11883984       0.43749129 </v>
   <v>      -0.30134969       0.13618564       0.46436822 </v>
   <v>      -0.47456656       0.29063263      -0.49024190 </v>
   <v>      -0.05735200       0.10264611       0.49476108 </v>
   <v>      -0.14520455       0.13024923       0.49616467 </v>
   <v>       0.10705368       0.04995038       0.49570922 </v>
   <v>       0.27323106       0.11175613       0.45736305 </v>
   <v>      -0.39530950       0.26501079      -0.48864448 </v>
   <v>       0.35615756       0.13698181       0.45932958 </v>
   <v>       0.44591962       0.26677158      -0.49745562 </v>
   <v>      -0.31243888       0.18391671       0.49809858 </v>
   <v>      -0.47398531       0.18607967       0.48651702 </v>
   <v>      -0.24894779       0.24062213      -0.44091520 </v>
   <v>       0.02397990       0.13137337       0.48532224 </v>
   <v>      -0.15828095       0.17716448      -0.46792466 </v>
   <v>       0.19444788       0.13416576       0.48642507 </v>
   <v>       0.10778088       0.10523031       0.48891546 </v>
   <v>       0.36258640       0.18659502       0.48867099 </v>
   <v>      -0.23985851       0.20404003      -0.46799945 </v>
   <v>      -0.39870554       0.21308492       0.49852971 </v>
   <v>       0.28914558       0.24818298      -0.46053399 </v>
   <v>       0.44929663       0.21440101       0.49227999 </v>
   <v>      -0.10443512       0.19190268      -0.43805306 </v>
   <v>      -0.03802035       0.19599239       0.46543502 </v>
   <v>       0.20205530       0.18378247      -0.48384971 </v>
   <v>       0.02426402       0.18439511       0.46990285 </v>
   <v>       0.28413810       0.20974745      -0.48348836 </v>
   <v>       0.14285342       0.20197672      -0.46035066 </v>
  </varray>
 </structure>
 <varray name="primitive_index" >
  <v type="int" >        1 </v>
  <v type="int" >       22 </v>
  <v type="int" >       21 </v>
  <v type="int" >        2 </v>
  <v type="int" >        3 </v>
  <v type="int" >       30 </v>
  <v type="int" >       24 </v>
  <v type="int" >       68 </v>
  <v type="int" >       78 </v>
  <v type="int" >       23 </v>
  <v type="int" >       31 </v>
  <v type="int" >       25 </v>
  <v type="int" >       35 </v>
  <v type="int" >       29 </v>
  <v type="int" >       70 </v>
  <v type="int" >       75 </v>
  <v type="int" >       36 </v>
  <v type="int" >       32 </v>
  <v type="int" >       26 </v>
  <v type="int" >       73 </v>
  <v type="int" >       34 </v>
  <v type="int" >       67 </v>
  <v type="int" >       28 </v>
  <v type="int" >       77 </v>
  <v type="int" >       71 </v>
  <v type="int" >       41 </v>
  <v type="int" >       37 </v>
  <v type="int" >       33 </v>
  <v type="int" >       27 </v>
  <v type="int" >       69 </v>
  <v type="int" >       76 </v>
  <v type="int" >       40 </v>
  <v type="int" >       38 </v>
  <v type="int" >       11 </v>
  <v type="int" >       48 </v>
  <v type="int" >        7 </v>
  <v type="int" >       88 </v>
  <v type="int" >       39 </v>
  <v type="int" >       74 </v>
  <v type="int" >       49 </v>
  <v type="int" >       72 </v>
  <v type="int" >       12 </v>
  <v type="int" >       63 </v>
  <v type="int" >       89 </v>
  <v type="int" >       10 </v>
  <v type="int" >       65 </v>
  <v type="int" >       47 </v>
  <v type="int" >       13 </v>
  <v type="int" >       50 </v>
  <v type="int" >        9 </v>
  <v type="int" >       46 </v>
  <v type="int" >       92 </v>
  <v type="int" >       91 </v>
  <v type="int" >       87 </v>
  <v type="int" >       14 </v>
  <v type="int" >       45 </v>
  <v type="int" >       84 </v>
  <v type="int" >       90 </v>
  <v type="int" >       16 </v>
  <v type="int" >       15 </v>
  <v type="int" >       83 </v>
  <v type="int" >       59 </v>
  <v type="int" >       64 </v>
  <v type="int" >       81 </v>
  <v type="int" >       82 </v>
  <v type="int" >       58 </v>
  <v type="int" >       43 </v>
  <v type="int" >       17 </v>
  <v type="int" >       60 </v>
  <v type="int" >       20 </v>
  <v type="int" >       55 </v>
  <v type="int" >        5 </v>
  <v type="int" >       56 </v>
  <v type="int" >        4 </v>
  <v type="int" >       57 </v>
  <v type="int" >        6 </v>
  <v type="int" >       85 </v>
  <v type="int" >       18 </v>
  <v type="int" >       61 </v>
  <v type="int" >       54 </v>
  <v type="int" >       19 </v>
  <v type="int" >       51 </v>
  <v type="int" >       62 </v>
  <v type="int" >       44 </v>
  <v type="int" >       80 </v>
  <v type="int" >       42 </v>
  <v type="int" >       86 </v>
  <v type="int" >       66 </v>
  <v type="int" >       53 </v>
  <v type="int" >        8 </v>
  <v type="int" >       52 </v>
  <v type="int" >       79 </v>
 </varray>
 <kpoints>
  <generation param="listgenerated">
   <i name="divisions" type="int">      20 </i>
   <v>       0.00000000       0.00000000       0.00000000 </v>
   <v>       0.50000000       0.00000000       0.00000000 </v>
   <v>       0.50000000       0.50000000       0.00000000 </v>
   <v>       0.00000000       0.50000000       0.00000000 </v>
   <v>       0.00000000       0.00000000       0.00000000 </v>
  </generation>
  <varray name="kpointlist" >
   <v>       0.00000000       0.00000000       0.00000000 </v>
   <v>       0.02631579       0.00000000       0.00000000 </v>
   <v>       0.05263158       0.00000000       0.00000000 </v>
   <v>       0.07894737       0.00000000       0.00000000 </v>
   <v>       0.10526316       0.00000000       0.00000000 </v>
   <v>       0.13157895       0.00000000       0.00000000 </v>
   <v>       0.15789474       0.00000000       0.00000000 </v>
   <v>       0.18421053       0.00000000       0.00000000 </v>
   <v>       0.21052632       0.00000000       0.00000000 </v>
   <v>       0.23684211       0.00000000       0.00000000 </v>
   <v>       0.26315789       0.00000000       0.00000000 </v>
   <v>       0.28947368       0.00000000       0.00000000 </v>
   <v>       0.31578947       0.00000000       0.00000000 </v>
   <v>       0.34210526       0.00000000       0.00000000 </v>
   <v>       0.36842105       0.00000000       0.00000000 </v>
   <v>       0.39473684       0.00000000       0.00000000 </v>
   <v>       0.42105263       0.00000000       0.00000000 </v>
   <v>       0.44736842       0.00000000       0.00000000 </v>
   <v>       0.47368421       0.00000000       0.00000000 </v>
   <v>       0.50000000       0.00000000       0.00000000 </v>
   <v>       0.50000000       0.00000000       0.00000000 </v>
   <v>       0.50000000       0.02631579       0.00000000 </v>
   <v>       0.50000000       0.05263158       0.00000000 </v>
   <v>       0.50000000       0.07894737       0.00000000 </v>
   <v>       0.50000000       0.10526316       0.00000000 </v>
   <v>       0.50000000       0.13157895       0.00000000 </v>
   <v>       0.50000000       0.15789474       0.00000000 </v>
   <v>       0.50000000       0.18421053       0.00000000 </v>
   <v>       0.50000000       0.21052632       0.00000000 </v>
   <v>       0.50000000       0.23684211       0.00000000 </v>
   <v>       0.50000000       0.26315789       0.00000000 </v>
   <v>       0.50000000       0.28947368       0.00000000 </v>
   <v>       0.50000000       0.31578947       0.00000000 </v>
   <v>       0.50000000       0.34210526       0.00000000 </v>
   <v>       0.50000000       0.36842105       0.00000000 </v>
   <v>       0.50000000       0.39473684       0.00000000 </v>
   <v>       0.50000000       0.42105263       0.00000000 </v>
   <v>       0.50000000       0.44736842       0.00000000 </v>
   <v>       0.50000000       0.47368421       0.00000000 </v>
   <v>       0.50000000       0.50000000       0.00000000 </v>
   <v>       0.50000000       0.50000000       0.00000000 </v>
   <v>       0.47368421       0.50000000       0.00000000 </v>
   <v>       0.44736842       0.50000000       0.00000000 </v>
   <v>       0.42105263       0.50000000       0.00000000 </v>
   <v>       0.39473684       0.50000000       0.00000000 </v>
   <v>       0.36842105       0.50000000       0.00000000 </v>
   <v>       0.34210526       0.50000000       0.00000000 </v>
   <v>       0.31578947       0.50000000       0.00000000 </v>
   <v>       0.28947368       0.50000000       0.00000000 </v>
   <v>       0.26315789       0.50000000       0.00000000 </v>
   <v>       0.23684211       0.50000000       0.00000000 </v>
   <v>       0.21052632       0.50000000       0.00000000 </v>
   <v>       0.18421053       0.50000000       0.00000000 </v>
   <v>       0.15789474       0.50000000       0.00000000 </v>
   <v>       0.13157895       0.50000000       0.00000000 </v>
   <v>       0.10526316       0.50000000       0.00000000 </v>
   <v>       0.07894737       0.50000000       0.00000000 </v>
   <v>       0.05263158       0.50000000       0.00000000 </v>
   <v>       0.02631579       0.50000000       0.00000000 </v>
   <v>       0.00000000       0.50000000       0.00000000 </v>
   <v>       0.00000000       0.50000000       0.00000000 </v>
   <v>       0.00000000       0.47368421       0.00000000 </v>
   <v>       0.00000000       0.44736842       0.00000000 </v>
   <v>       0.00000000       0.42105263       0.00000000 </v>
   <v>       0.00000000       0.39473684       0.00000000 </v>
   <v>       0.00000000       0.36842105       0.00000000 </v>
   <v>       0.00000000       0.34210526       0.00000000 </v>
   <v>       0.00000000       0.31578947       0.00000000 </v>
   <v>       0.00000000       0.28947368       0.00000000 </v>
   <v>       0.00000000       0.26315789       0.00000000 </v>
   <v>       0.00000000       0.23684211       0.00000000 </v>
   <v>       0.00000000       0.21052632       0.00000000 </v>
   <v>       0.00000000       0.18421053       0.00000000 </v>
   <v>       0.00000000       0.15789474       0.00000000 </v>
   <v>       0.00000000       0.13157895       0.00000000 </v>
   <v>       0.00000000       0.10526316       0.00000000 </v>
   <v>       0.00000000       0.07894737       0.00000000 </v>
   <v>       0.00000000       0.05263158       0.00000000 </v>
   <v>       0.00000000       0.02631579       0.00000000 </v>
   <v>       0.00000000       0.00000000       0.00000000 </v>
  </varray>
  <varray name="weights" >
   <v>       0.01250000 </v>
   <v>       0.01250000 </v>
   <v>       0.01250000 </v>
   <v>       0.01250000 </v>
   <v>       0.01250000 </v>
   <v>       0.01250000 </v>
   <v>       0.01250000 </v>
   <v>       0.01250000 </v>
   <v>       0.01250000 </v>
   <v>       0.01250000 </v>
   <v>       0.01250000 </v>
   <v>       0.01250000 </v>
   <v>       0.01250000 </v>
   <v>       0.01250000 </v>
   <v>       0.01250000 </v>
   <v>       0.01250000 </v>
   <v>       0.01250000 </v>
   <v>       0.01250000 </v>
   <v>       0.01250000 </v>
   <v>       0.01250000 </v>
   <v>       0.01250000 </v>
   <v>       0.01250000 </v>
   <v>       0.01250000 </v>
   <v>       0.01250000 </v>
   <v>       0.01250000 </v>
   <v>       0.01250000 </v>
   <v>       0.01250000 </v>
   <v>       0.01250000 </v>
   <v>       0.01250000 </v>
   <v>       0.01250000 </v>
   <v>       0.01250000 </v>
   <v>       0.01250000 </v>
   <v>       0.01250000 </v>
   <v>       0.01250000 </v>
   <v>       0.01250000 </v>
   <v>       0.01250000 </v>
   <v>       0.01250000 </v>
   <v>       0.01250000 </v>
   <v>       0.01250000 </v>
   <v>       0.01250000 </v>
   <v>       0.01250000 </v>
   <v>       0.01250000 </v>
   <v>       0.01250000 </v>
   <v>       0.01250000 </v>
   <v>       0.01250000 </v>
   <v>       0.01250000 </v>
   <v>       0.01250000 </v>
   <v>       0.01250000 </v>
   <v>       0.01250000 </v>
   <v>       0.01250000 </v>
   <v>       0.01250000 </v>
   <v>       0.01250000 </v>
   <v>       0.01250000 </v>
   <v>       0.01250000 </v>
   <v>       0.01250000 </v>
   <v>       0.01250000 </v>
   <v>       0.01250000 </v>
   <v>       0.01250000 </v>
   <v>       0.01250000 </v>
   <v>       0.01250000 </v>
   <v>       0.01250000 </v>
   <v>       0.01250000 </v>
   <v>       0.01250000 </v>
   <v>       0.01250000 </v>
   <v>       0.01250000 </v>
   <v>       0.01250000 </v>
   <v>       0.01250000 </v>
   <v>       0.01250000 </v>
   <v>       0.01250000 </v>
   <v>       0.01250000 </v>
   <v>       0.01250000 </v>
   <v>       0.01250000 </v>
   <v>       0.01250000 </v>
   <v>       0.01250000 </v>
   <v>       0.01250000 </v>
   <v>       0.01250000 </v>
   <v>       0.01250000 </v>
   <v>       0.01250000 </v>
   <v>       0.01250000 </v>
   <v>       0.01250000 </v>
  </varray>
 </kpoints>
 <parameters>
  <separator name="general" >
   <i type="string" name="SYSTEM">Simulation for cell shape cell volume r</i>
   <i type="logical" name="LCOMPAT"> F  </i>
  </separator>
  <separator name="electronic" >
   <i type="string" name="PREC">high</i>
   <i name="ENMAX">    500.00000000</i>
   <i name="ENAUG">    644.87300000</i>
   <i name="EDIFF">      0.00001000</i>
   <i type="int" name="IALGO">    38</i>
   <i type="int" name="IWAVPR">    10</i>
   <i type="int" name="NBANDS">   192</i>
   <i name="NELECT">    288.00000000</i>
   <i type="int" name="TURBO">     0</i>
   <i type="int" name="IRESTART">     0</i>
   <i type="int" name="NREBOOT">     0</i>
   <i type="int" name="NMIN">     0</i>
   <i name="EREF">      0.00000000</i>
   <separator name="electronic smearing" >
    <i type="int" name="ISMEAR">     0</i>
    <i name="SIGMA">      0.01000000</i>
    <i name="KSPACING">      0.50000000</i>
    <i type="logical" name="KGAMMA"> T  </i>
   </separator>
   <separator name="electronic projectors" >
    <i type="logical" name="LREAL"> T  </i>
    <v name="ROPT">     -0.00040000     -0.00040000     -0.00040000     -0.00040000</v>
    <i type="int" name="LMAXPAW">  -100</i>
    <i type="int" name="LMAXMIX">     2</i>
    <i type="logical" name="NLSPLINE"> F  </i>
   </separator>
   <separator name="electronic startup" >
    <i type="int" name="ISTART">     1</i>
    <i type="int" name="ICHARG">    11</i>
    <i type="int" name="INIWAV">     1</i>
   </separator>
   <separator name="electronic spin" >
    <i type="int" name="ISPIN">     1</i>
    <i type="logical" name="LNONCOLLINEAR"> F  </i>
    <v name="MAGMOM">      1.00000000      1.00000000      1.00000000      1.00000000      1.00000000      1.00000000      1.00000000      1.00000000      1.00000000      1.00000000      1.00000000      1.00000000      1.00000000      1.00000000      1.00000000      1.00000000      1.00000000      1.00000000      1.00000000      1.00000000
      1.00000000      1.00000000      1.00000000      1.00000000      1.00000000      1.00000000      1.00000000      1.00000000      1.00000000      1.00000000      1.00000000      1.00000000      1.00000000      1.00000000      1.00000000      1.00000000      1.00000000      1.00000000      1.00000000      1.00000000
      1.00000000      1.00000000      1.00000000      1.00000000      1.00000000      1.00000000      1.00000000      1.00000000      1.00000000      1.00000000      1.00000000      1.00000000      1.00000000      1.00000000      1.00000000      1.00000000      1.00000000      1.00000000      1.00000000      1.00000000
      1.00000000      1.00000000      1.00000000      1.00000000      1.00000000      1.00000000      1.00000000      1.00000000      1.00000000      1.00000000      1.00000000      1.00000000      1.00000000      1.00000000      1.00000000      1.00000000      1.00000000      1.00000000      1.00000000      1.00000000
      1.00000000      1.00000000      1.00000000      1.00000000      1.00000000      1.00000000      1.00000000      1.00000000      1.00000000      1.00000000      1.00000000      1.00000000</v>
    <i name="NUPDOWN">     -1.00000000</i>
    <i type="logical" name="LSORBIT"> F  </i>
    <v name="SAXIS">      0.00000000      0.00000000      1.00000000</v>
    <i type="logical" name="LSPIRAL"> F  </i>
    <v name="QSPIRAL">      0.00000000      0.00000000      0.00000000</v>
    <i type="logical" name="LZEROZ"> F  </i>
   </separator>
   <separator name="electronic exchange-correlation" >
    <i type="logical" name="LASPH"> F  </i>
    <i type="logical" name="LMETAGGA"> F  </i>
   </separator>
   <separator name="electronic convergence" >
    <i type="int" name="NELM">   200</i>
    <i type="int" name="NELMDL">     0</i>
    <i type="int" name="NELMIN">     2</i>
    <i name="ENINI">    500.00000000</i>
    <separator name="electronic convergence detail" >
     <i type="logical" name="LDIAG"> T  </i>
     <i type="logical" name="LSUBROT"> F  </i>
     <i name="WEIMIN">      0.00000000</i>
     <i name="EBREAK">      0.00000001</i>
     <i name="DEPER">      0.30000000</i>
     <i type="int" name="NRMM">     4</i>
     <i name="TIME">      0.40000000</i>
    </separator>
   </separator>
   <separator name="electronic mixer" >
    <i name="AMIX">      0.40000000</i>
    <i name="BMIX">      1.00000000</i>
    <i name="AMIN">      0.10000000</i>
    <i name="AMIX_MAG">      1.60000000</i>
    <i name="BMIX_MAG">      1.00000000</i>
    <separator name="electronic mixer details" >
     <i type="int" name="IMIX">     4</i>
     <i type="logical" name="MIXFIRST"> F  </i>
     <i type="int" name="MAXMIX">   -45</i>
     <i name="WC">    100.00000000</i>
     <i type="int" name="INIMIX">     1</i>
     <i type="int" name="MIXPRE">     1</i>
     <i type="int" name="MREMOVE">     5</i>
    </separator>
   </separator>
   <separator name="electronic dipolcorrection" >
    <i type="logical" name="LDIPOL"> F  </i>
    <i type="logical" name="LMONO"> F  </i>
    <i type="int" name="IDIPOL">     0</i>
    <i name="EPSILON">      1.00000000</i>
    <v name="DIPOL">   -100.00000000   -100.00000000   -100.00000000</v>
    <i name="EFIELD">      0.00000000</i>
   </separator>
  </separator>
  <separator name="grids" >
   <i type="int" name="NGX">   108</i>
   <i type="int" name="NGY">   192</i>
   <i type="int" name="NGZ">   150</i>
   <i type="int" name="NGXF">   168</i>
   <i type="int" name="NGYF">   280</i>
   <i type="int" name="NGZF">   224</i>
   <i type="logical" name="ADDGRID"> F  </i>
  </separator>
  <separator name="ionic" >
   <i type="int" name="NSW">     0</i>
   <i type="int" name="IBRION">    -1</i>
   <i type="int" name="MDALGO">     0</i>
   <i type="int" name="ISIF">     2</i>
   <i name="PSTRESS">      0.00000000</i>
   <i name="EDIFFG">     -0.01000000</i>
   <i type="int" name="NFREE">     0</i>
   <i name="POTIM">      0.30000000</i>
   <i name="SMASS">     -3.00000000</i>
   <i name="SCALEE">      1.00000000</i>
  </separator>
  <separator name="ionic md" >
   <i name="TEBEG">      0.00010000</i>
   <i name="TEEND">      0.00010000</i>
   <i type="int" name="NBLOCK">     1</i>
   <i type="int" name="KBLOCK">     1</i>
   <i type="int" name="NPACO">   256</i>
   <i name="APACO">     16.00000000</i>
  </separator>
  <separator name="symmetry" >
   <i type="int" name="ISYM">     2</i>
   <i name="SYMPREC">      0.00001000</i>
  </separator>
  <separator name="dos" >
   <i type="int" name="LORBIT">     0</i>
   <v name="RWIGS">     -1.00000000     -1.00000000     -1.00000000     -1.00000000</v>
   <i type="int" name="NEDOS">   301</i>
   <i name="EMIN">     10.00000000</i>
   <i name="EMAX">    -10.00000000</i>
   <i name="EFERMI">      0.00000000</i>
  </separator>
  <separator name="writing" >
   <i type="int" name="NWRITE">     0</i>
   <i type="logical" name="LWAVE"> F  </i>
   <i type="logical" name="LDOWNSAMPLE"> F  </i>
   <i type="logical" name="LCHARG"> F  </i>
   <i type="logical" name="LPARD"> F  </i>
   <i type="logical" name="LVTOT"> F  </i>
   <i type="logical" name="LVHAR"> F  </i>
   <i type="logical" name="LELF"> F  </i>
   <i type="logical" name="LOPTICS"> F  </i>
   <v name="STM">      0.00000000      0.00000000      0.00000000      0.00000000      0.00000000      0.00000000      0.00000000</v>
  </separator>
  <separator name="performance" >
   <i type="int" name="NPAR">    16</i>
   <i type="int" name="NSIM">     4</i>
   <i type="int" name="NBLK">    -1</i>
   <i type="logical" name="LPLANE"> T  </i>
   <i type="logical" name="LSCALAPACK"> T  </i>
   <i type="logical" name="LSCAAWARE"> F  </i>
   <i type="logical" name="LSCALU"> F  </i>
   <i type="logical" name="LASYNC"> F  </i>
   <i type="logical" name="LORBITALREAL"> F  </i>
  </separator>
  <separator name="miscellaneous" >
   <i type="int" name="IDIOT">     3</i>
   <i type="int" name="ISPECIAL">     0</i>
   <i type="logical" name="LMUSIC"> F  </i>
   <v name="POMASS">     14.00100000     16.00000000     12.01100000      1.00000000</v>
   <v name="DARWINR">      0.00000000      0.00000000      0.00000000      0.00000000</v>
   <v name="DARWINV">      1.00000000      1.00000000      1.00000000      1.00000000</v>
   <i type="logical" name="LCORR"> T  </i>
  </separator>
  <i type="logical" name="GGA_COMPAT"> T  </i>
  <i type="logical" name="LBERRY"> F  </i>
  <i type="int" name="ICORELEVEL">     0</i>
  <i type="logical" name="LDAU"> F  </i>
  <i type="int" name="I_CONSTRAINED_M">     0</i>
  <separator name="electronic exchange-correlation" >
   <i type="string" name="GGA">PE</i>
   <i type="int" name="VOSKOWN">     0</i>
   <i type="logical" name="LHFCALC"> F  </i>
   <i type="string" name="PRECFOCK"></i>
   <i type="logical" name="LSYMGRAD"> F  </i>
   <i type="logical" name="LHFONE"> F  </i>
   <i type="logical" name="LRHFCALC"> F  </i>
   <i type="logical" name="LTHOMAS"> F  </i>
   <i type="logical" name="LMODELHF"> F  </i>
   <i name="ENCUT4O">     -1.00000000</i>
   <i type="int" name="EXXOEP">     0</i>
   <i type="int" name="FOURORBIT">     0</i>
   <i name="AEXX">      0.00000000</i>
   <i name="HFALPHA">      0.00000000</i>
   <i name="MCALPHA">      0.00000000</i>
   <i name="ALDAX">      1.00000000</i>
   <i name="AGGAX">      1.00000000</i>
   <i name="ALDAC">      1.00000000</i>
   <i name="AGGAC">      1.00000000</i>
   <i type="int" name="NKREDX">     1</i>
   <i type="int" name="NKREDY">     1</i>
   <i type="int" name="NKREDZ">     1</i>
   <i type="logical" name="SHIFTRED"> F  </i>
   <i type="logical" name="ODDONLY"> F  </i>
   <i type="logical" name="EVENONLY"> F  </i>
   <i type="int" name="LMAXFOCK">     0</i>
   <i type="int" name="NMAXFOCKAE">     0</i>
   <i type="logical" name="LFOCKAEDFT"> F  </i>
   <i name="HFSCREEN">      0.00000000</i>
   <i name="HFSCREENC">      0.00000000</i>
   <i type="int" name="NBANDSGWLOW">     0</i>
  </separator>
  <separator name="vdW DFT" >
   <i type="logical" name="LUSE_VDW"> F  </i>
   <i name="Zab_VDW">     -0.84910000</i>
   <i name="PARAM1">      0.12340000</i>
   <i name="PARAM2">      1.00000000</i>
   <i name="PARAM3">      0.00000000</i>
  </separator>
  <separator name="model GW" >
   <i type="int" name="MODEL_GW">     0</i>
   <i name="MODEL_EPS0">     49.08647115</i>
   <i name="MODEL_ALPHA">      1.00000000</i>
  </separator>
  <separator name="linear response parameters" >
   <i type="logical" name="LEPSILON"> F  </i>
   <i type="logical" name="LRPA"> F  </i>
   <i type="logical" name="LNABLA"> F  </i>
   <i type="logical" name="LVEL"> F  </i>
   <i type="int" name="KINTER">     0</i>
   <i name="CSHIFT">      0.10000000</i>
   <i name="OMEGAMAX">     -1.00000000</i>
   <i name="DEG_THRESHOLD">      0.00200000</i>
   <i name="RTIME">     -0.10000000</i>
   <i name="WPLASMAI">      0.00000000</i>
   <v name="DFIELD">      0.00000000      0.00000000      0.00000000</v>
   <v name="WPLASMA">      0.00000000      0.00000000      0.00000000      0.00000000      0.00000000      0.00000000      0.00000000      0.00000000      0.00000000</v>
  </separator>
  <separator name="orbital magnetization" >
   <i type="logical" name="NUCIND"> F  </i>
   <v name="MAGPOS">      0.00000000      0.00000000      0.00000000</v>
   <i type="logical" name="LNICSALL"> T  </i>
   <i type="logical" name="ORBITALMAG"> F  </i>
   <i type="logical" name="LMAGBLOCH"> F  </i>
   <i type="logical" name="LCHIMAG"> F  </i>
   <i type="logical" name="LGAUGE"> T  </i>
   <i type="int" name="MAGATOM">     0</i>
   <v name="MAGDIPOL">      0.00000000      0.00000000      0.00000000</v>
   <v name="AVECCONST">      0.00000000      0.00000000      0.00000000</v>
  </separator>
  <separator name="response functions" >
   <i type="logical" name="LADDER"> F  </i>
   <i type="logical" name="LRPAFORCE"> F  </i>
   <i type="logical" name="LFXC"> F  </i>
   <i type="logical" name="LHARTREE"> T  </i>
   <i type="int" name="IBSE">     0</i>
   <v type="int" name="KPOINT">    -1     0     0     0</v>
   <i type="logical" name="LTCTE"> F  </i>
   <i type="logical" name="LTETE"> F  </i>
   <i type="logical" name="LTRIPLET"> F  </i>
   <i type="logical" name="LFXCEPS"> F  </i>
   <i type="logical" name="LFXHEG"> F  </i>
   <i type="int" name="NATURALO">     2</i>
   <i type="logical" name="L2ORDER"> F  </i>
   <i type="logical" name="LMP2LT"> F  </i>
   <i type="logical" name="LUSEW"> F  </i>
   <i name="ENCUTGW">     -2.00000000</i>
   <i name="ENCUTGWSOFT">     -2.00000000</i>
   <i name="ENCUTLF">     -1.00000000</i>
   <i type="int" name="LMAXMP2">    -1</i>
   <i name="SCISSOR">      0.00000000</i>
   <i type="int" name="NOMEGA">     0</i>
   <i type="int" name="NOMEGAR">     0</i>
   <i type="int" name="NBANDSGW">    -1</i>
   <i type="int" name="NBANDSO">    -1</i>
   <i type="int" name="NBANDSV">    -1</i>
   <i type="int" name="NELM">   200</i>
   <i type="int" name="NELMHF">     1</i>
   <i type="int" name="DIM">     3</i>
   <i type="int" name="ANTIRES">     0</i>
   <i name="OMEGAMAX">    -30.00000000</i>
   <i name="OMEGAMIN">    -30.00000000</i>
   <i name="OMEGATL">   -200.00000000</i>
   <i type="int" name="OMEGAGRID">   140</i>
   <i name="CSHIFT">     -0.10000000</i>
   <i type="logical" name="SELFENERGY"> F  </i>
   <i type="logical" name="LSPECTRAL"> F  </i>
   <i type="logical" name="LSPECTRALGW"> F  </i>
   <i type="logical" name="LSINGLES"> F  </i>
   <i type="logical" name="LFERMIGW"> F  </i>
   <i type="logical" name="ODDONLYGW"> F  </i>
   <i type="logical" name="EVENONLYGW"> F  </i>
   <i type="int" name="NKREDLFX">     1</i>
   <i type="int" name="NKREDLFY">     1</i>
   <i type="int" name="NKREDLFZ">     1</i>
   <i type="int" name="MAXMEM">  2800</i>
   <i type="int" name="TELESCOPE">     0</i>
   <i type="int" name="TAUPAR">     1</i>
   <i type="int" name="OMEGAPAR">    -1</i>
   <i name="LAMBDA">      1.00000000</i>
  </separator>
  <separator name="External order field" >
   <i name="OFIELD_KAPPA">      0.00000000</i>
   <v name="OFIELD_K">      0.00000000      0.00000000      0.00000000</v>
   <i name="OFIELD_Q6_NEAR">      0.00000000</i>
   <i name="OFIELD_Q6_FAR">      0.00000000</i>
   <i name="OFIELD_A">      0.00000000</i>
  </separator>
  <separator name="solvation model" >
   <i type="logical" name="LSOL"> F  </i>
  </separator>
 </parameters>
 <atominfo>
  <atoms>      92 </atoms>
  <types>       4 </types>
  <array name="atoms" >
   <dimension dim="1">ion</dimension>
   <field type="string">element</field>
   <field type="int">atomtype</field>
   <set>
    <rc><c>N </c><c>   1</c></rc>
    <rc><c>N </c><c>   1</c></rc>
    <rc><c>N </c><c>   1</c></rc>
    <rc><c>N </c><c>   1</c></rc>
    <rc><c>N </c><c>   1</c></rc>
    <rc><c>N </c><c>   1</c></rc>
    <rc><c>O </c><c>   2</c></rc>
    <rc><c>O </c><c>   2</c></rc>
    <rc><c>C </c><c>   3</c></rc>
    <rc><c>C </c><c>   3</c></rc>
    <rc><c>C </c><c>   3</c></rc>
    <rc><c>C </c><c>   3</c></rc>
    <rc><c>C </c><c>   3</c></rc>
    <rc><c>C </c><c>   3</c></rc>
    <rc><c>C </c><c>   3</c></rc>
    <rc><c>C </c><c>   3</c></rc>
    <rc><c>C </c><c>   3</c></rc>
    <rc><c>C </c><c>   3</c></rc>
    <rc><c>C </c><c>   3</c></rc>
    <rc><c>C </c><c>   3</c></rc>
    <rc><c>C </c><c>   3</c></rc>
    <rc><c>C </c><c>   3</c></rc>
    <rc><c>C </c><c>   3</c></rc>
    <rc><c>C </c><c>   3</c></rc>
    <rc><c>C </c><c>   3</c></rc>
    <rc><c>C </c><c>   3</c></rc>
    <rc><c>C </c><c>   3</c></rc>
    <rc><c>C </c><c>   3</c></rc>
    <rc><c>C </c><c>   3</c></rc>
    <rc><c>C </c><c>   3</c></rc>
    <rc><c>C </c><c>   3</c></rc>
    <rc><c>C </c><c>   3</c></rc>
    <rc><c>C </c><c>   3</c></rc>
    <rc><c>C </c><c>   3</c></rc>
    <rc><c>C </c><c>   3</c></rc>
    <rc><c>C </c><c>   3</c></rc>
    <rc><c>C </c><c>   3</c></rc>
    <rc><c>C </c><c>   3</c></rc>
    <rc><c>C </c><c>   3</c></rc>
    <rc><c>C </c><c>   3</c></rc>
    <rc><c>C </c><c>   3</c></rc>
    <rc><c>C </c><c>   3</c></rc>
    <rc><c>C </c><c>   3</c></rc>
    <rc><c>C </c><c>   3</c></rc>
    <rc><c>C </c><c>   3</c></rc>
    <rc><c>C </c><c>   3</c></rc>
    <rc><c>C </c><c>   3</c></rc>
    <rc><c>C </c><c>   3</c></rc>
    <rc><c>C </c><c>   3</c></rc>
    <rc><c>C </c><c>   3</c></rc>
    <rc><c>C </c><c>   3</c></rc>
    <rc><c>C </c><c>   3</c></rc>
    <rc><c>C </c><c>   3</c></rc>
    <rc><c>C </c><c>   3</c></rc>
    <rc><c>C </c><c>   3</c></rc>
    <rc><c>C </c><c>   3</c></rc>
    <rc><c>C </c><c>   3</c></rc>
    <rc><c>C </c><c>   3</c></rc>
    <rc><c>C </c><c>   3</c></rc>
    <rc><c>C </c><c>   3</c></rc>
    <rc><c>C </c><c>   3</c></rc>
    <rc><c>C </c><c>   3</c></rc>
    <rc><c>H </c><c>   4</c></rc>
    <rc><c>H </c><c>   4</c></rc>
    <rc><c>H </c><c>   4</c></rc>
    <rc><c>H </c><c>   4</c></rc>
    <rc><c>H </c><c>   4</c></rc>
    <rc><c>H </c><c>   4</c></rc>
    <rc><c>H </c><c>   4</c></rc>
    <rc><c>H </c><c>   4</c></rc>
    <rc><c>H </c><c>   4</c></rc>
    <rc><c>H </c><c>   4</c></rc>
    <rc><c>H </c><c>   4</c></rc>
    <rc><c>H </c><c>   4</c></rc>
    <rc><c>H </c><c>   4</c></rc>
    <rc><c>H </c><c>   4</c></rc>
    <rc><c>H </c><c>   4</c></rc>
    <rc><c>H </c><c>   4</c></rc>
    <rc><c>H </c><c>   4</c></rc>
    <rc><c>H </c><c>   4</c></rc>
    <rc><c>H </c><c>   4</c></rc>
    <rc><c>H </c><c>   4</c></rc>
    <rc><c>H </c><c>   4</c></rc>
    <rc><c>H </c><c>   4</c></rc>
    <rc><c>H </c><c>   4</c></rc>
    <rc><c>H </c><c>   4</c></rc>
    <rc><c>H </c><c>   4</c></rc>
    <rc><c>H </c><c>   4</c></rc>
    <rc><c>H </c><c>   4</c></rc>
    <rc><c>H </c><c>   4</c></rc>
    <rc><c>H </c><c>   4</c></rc>
    <rc><c>H </c><c>   4</c></rc>
   </set>
  </array>
  <array name="atomtypes" >
   <dimension dim="1">type</dimension>
   <field type="int">atomspertype</field>
   <field type="string">element</field>
   <field>mass</field>
   <field>valence</field>
   <field type="string">pseudopotential</field>
   <set>
    <rc><c>   6</c><c>N </c><c>     14.00100000</c><c>      5.00000000</c><c>  PAW_PBE N 08Apr2002                   </c></rc>
    <rc><c>   2</c><c>O </c><c>     16.00000000</c><c>      6.00000000</c><c>  PAW_PBE O 08Apr2002                   </c></rc>
    <rc><c>  54</c><c>C </c><c>     12.01100000</c><c>      4.00000000</c><c>  PAW_PBE C 08Apr2002                   </c></rc>
    <rc><c>  30</c><c>H </c><c>      1.00000000</c><c>      1.00000000</c><c>  PAW_PBE H 15Jun2001                   </c></rc>
   </set>
  </array>
 </atominfo>
 <structure name="initialpos" >
  <crystal>
   <varray name="basis" >
    <v>      14.87674846       0.00085915       0.00000000 </v>
    <v>       0.01505457      25.29649716       0.00000000 </v>
    <v>       0.88180846       0.50053845      20.00000000 </v>
   </varray>
   <i name="volume">   7526.59224306 </i>
   <varray name="rec_basis" >
    <v>       0.06721899      -0.00004000      -0.00296271 </v>
    <v>      -0.00000228       0.03953117      -0.00098924 </v>
    <v>       0.00000000       0.00000000       0.05000000 </v>
   </varray>
  </crystal>
  <varray name="positions" >
   <v>       0.61272504       0.71351991       0.50124200 </v>
   <v>       0.45283930       0.71484304       0.51002810 </v>
   <v>       0.53432649       0.79486422       0.48585584 </v>
   <v>       0.44591962       0.26677158       0.50254438 </v>
   <v>       0.60469050       0.26501079       0.51135552 </v>
   <v>       0.52601469       0.18607967       0.48651702 </v>
   <v>       0.03810638       0.79745513       0.46798574 </v>
   <v>       0.02426402       0.18439511       0.46990285 </v>
   <v>       0.03079903       0.96087462       0.49964631 </v>
   <v>       0.95220285       0.93066515       0.49525630 </v>
   <v>       0.95228840       0.87570014       0.48801227 </v>
   <v>       0.03653380       0.84972390       0.48409658 </v>
   <v>       0.11672670       0.87799017       0.49390368 </v>
   <v>       0.11217230       0.93282877       0.50105135 </v>
   <v>       0.02799178       0.01953507       0.49987375 </v>
   <v>       0.94642420       0.04749909       0.50145143 </v>
   <v>       0.94264800       0.10264611       0.49476108 </v>
   <v>       0.02397990       0.13137337       0.48532224 </v>
   <v>       0.10778088       0.10523031       0.48891546 </v>
   <v>       0.10705368       0.04995038       0.49570922 </v>
   <v>       0.61043254       0.76633239       0.49127426 </v>
   <v>       0.53234986       0.68934667       0.50848255 </v>
   <v>       0.45764587       0.76732155       0.49759952 </v>
   <v>       0.53138566       0.63099603       0.51388703 </v>
   <v>       0.61038222       0.60210003       0.49980379 </v>
   <v>       0.60898420       0.54716747       0.50176905 </v>
   <v>       0.52914524       0.51901724       0.51866096 </v>
   <v>       0.45067367       0.54839475       0.53389195 </v>
   <v>       0.45146168       0.60335368       0.53108221 </v>
   <v>       0.69754071       0.79433529       0.48771125 </v>
   <v>       0.77264944       0.77013506       0.51567932 </v>
   <v>       0.85476779       0.79612331       0.51530428 </v>
   <v>       0.86589677       0.84688030       0.48547776 </v>
   <v>       0.79058182       0.87041602       0.45635422 </v>
   <v>       0.70742492       0.84508576       0.45830017 </v>
   <v>       0.37140900       0.79650790       0.49729152 </v>
   <v>       0.36438841       0.84563953       0.46371074 </v>
   <v>       0.28191618       0.87152550       0.46173965 </v>
   <v>       0.20440487       0.85029139       0.49529184 </v>
   <v>       0.21313545       0.80189398       0.53109471 </v>
   <v>       0.29472920       0.77500550       0.53106279 </v>
   <v>       0.44929663       0.21440101       0.49227999 </v>
   <v>       0.52543344       0.29063263       0.50975810 </v>
   <v>       0.60129446       0.21308492       0.49852971 </v>
   <v>       0.52582871       0.34878774       0.51486935 </v>
   <v>       0.44860468       0.37821149       0.50040535 </v>
   <v>       0.44982682       0.43308941       0.50196247 </v>
   <v>       0.52760993       0.46063063       0.51884676 </v>
   <v>       0.60419814       0.43069031       0.53439015 </v>
   <v>       0.60369384       0.37581899       0.53196432 </v>
   <v>       0.36258640       0.18659502       0.48867099 </v>
   <v>       0.28413810       0.20974745       0.51651164 </v>
   <v>       0.20205530       0.18378247       0.51615029 </v>
   <v>       0.19444788       0.13416576       0.48642507 </v>
   <v>       0.27323106       0.11175613       0.45736305 </v>
   <v>       0.35615756       0.13698181       0.45932958 </v>
   <v>       0.68756112       0.18391671       0.49809858 </v>
   <v>       0.69865031       0.13618564       0.46436822 </v>
   <v>       0.78136358       0.11038554       0.46243995 </v>
   <v>       0.85479545       0.13024923       0.49616467 </v>
   <v>       0.84171905       0.17716448       0.53207534 </v>
   <v>       0.76014149       0.20404003       0.53200055 </v>
   <v>       0.88681130       0.95006829       0.49783055 </v>
   <v>       0.17213884       0.03043903       0.49807965 </v>
   <v>       0.10090806       0.78599325       0.46376376 </v>
   <v>       0.96197965       0.19599239       0.46543502 </v>
   <v>       0.91120018       0.77706351       0.53887654 </v>
   <v>       0.76487865       0.73083347       0.53872505 </v>
   <v>       0.79762921       0.90906943       0.43123168 </v>
   <v>       0.64947904       0.86405732       0.43636979 </v>
   <v>       0.42423463       0.86261183       0.43814749 </v>
   <v>       0.27664663       0.90858177       0.43311091 </v>
   <v>       0.30050473       0.73732343       0.55811629 </v>
   <v>       0.15566618       0.78594300       0.56086191 </v>
   <v>       0.39026567       0.62574809       0.54223196 </v>
   <v>       0.38838508       0.52775184       0.54888788 </v>
   <v>       0.67028194       0.52557313       0.48812468 </v>
   <v>       0.67216412       0.62358623       0.48596801 </v>
   <v>       0.14285342       0.20197672       0.53964934 </v>
   <v>       0.28914558       0.24818298       0.53946601 </v>
   <v>       0.26917934       0.07408921       0.43228605 </v>
   <v>       0.41671719       0.11883984       0.43749129 </v>
   <v>       0.64190923       0.12027236       0.43866994 </v>
   <v>       0.79009815       0.07450602       0.43372333 </v>
   <v>       0.75105221       0.24062213       0.55908480 </v>
   <v>       0.89556488       0.19190268       0.56194694 </v>
   <v>       0.66352980       0.35302269       0.54335689 </v>
   <v>       0.66469459       0.45079774       0.54931333 </v>
   <v>       0.39024061       0.45518522       0.48799563 </v>
   <v>       0.38847810       0.35723812       0.48658733 </v>
   <v>       0.17505300       0.95340441       0.50878385 </v>
   <v>       0.88262330       0.02657432       0.50894238 </v>
  </varray>
 </structure>
 <calculation>
  <scstep>
   <time name="dav">  266.09  268.76</time>
   <time name="total">  266.21  268.90</time>
   <energy>
    <i name="alphaZ">     51.95067633 </i>
    <i name="ewald">  31422.92235294 </i>
    <i name="hartreedc"> -40321.37406312 </i>
    <i name="XCdc">   1000.90245660 </i>
    <i name="pawpsdc">  26647.17155898 </i>
    <i name="pawaedc"> -26697.22083273 </i>
    <i name="eentropy">     -0.00000000 </i>
    <i name="bandstr">  -3535.45032220 </i>
    <i name="atom">  10772.52963260 </i>
    <i name="e_fr_energy">   -658.56854059 </i>
    <i name="e_wo_entrp">   -658.56854059 </i>
    <i name="e_0_energy">   -658.56854059 </i>
   </energy>
  </scstep>
  <scstep>
   <time name="dav">  296.76  299.75</time>
   <time name="total">  296.76  299.75</time>
   <energy>
    <i name="e_fr_energy">   -659.57090381 </i>
    <i name="e_wo_entrp">   -659.57090381 </i>
    <i name="e_0_energy">   -659.57090381 </i>
   </energy>
  </scstep>
  <scstep>
   <time name="dav">  329.15  332.52</time>
   <time name="total">  329.16  332.53</time>
   <energy>
    <i name="e_fr_energy">   -659.59555932 </i>
    <i name="e_wo_entrp">   -659.59555932 </i>
    <i name="e_0_energy">   -659.59555932 </i>
   </energy>
  </scstep>
  <scstep>
   <time name="dav">  292.34  295.37</time>
   <time name="total">  292.34  295.37</time>
   <energy>
    <i name="e_fr_energy">   -659.59604678 </i>
    <i name="e_wo_entrp">   -659.59604678 </i>
    <i name="e_0_energy">   -659.59604678 </i>
   </energy>
  </scstep>
  <scstep>
   <time name="dav">  291.24  294.26</time>
   <time name="total">  291.24  294.26</time>
   <energy>
    <i name="e_fr_energy">   -659.59606865 </i>
    <i name="e_wo_entrp">   -659.59606865 </i>
    <i name="e_0_energy">   -659.59606865 </i>
   </energy>
  </scstep>
  <scstep>
   <time name="dav">  225.84  228.18</time>
   <time name="total">  225.85  228.18</time>
   <energy>
    <i name="alphaZ">     51.95067633 </i>
    <i name="ewald">  31422.92235294 </i>
    <i name="hartreedc"> -40321.37406312 </i>
    <i name="XCdc">   1000.90245660 </i>
    <i name="pawpsdc">  26647.17155898 </i>
    <i name="pawaedc"> -26697.22083273 </i>
    <i name="eentropy">     -0.00000000 </i>
    <i name="bandstr">  -3536.47785094 </i>
    <i name="atom">  10772.52963260 </i>
    <i name="e_fr_energy">   -659.59606934 </i>
    <i name="e_wo_entrp">   -659.59606934 </i>
    <i name="e_0_energy">   -659.59606934 </i>
   </energy>
  </scstep>
  <structure>
   <crystal>
    <varray name="basis" >
     <v>      14.87674846       0.00085915       0.00000000 </v>
     <v>       0.01505457      25.29649716       0.00000000 </v>
     <v>       0.88180846       0.50053845      20.00000000 </v>
    </varray>
    <i name="volume">   7526.59224306 </i>
    <varray name="rec_basis" >
     <v>       0.06721899      -0.00004000      -0.00296271 </v>
     <v>      -0.00000228       0.03953117      -0.00098924 </v>
     <v>       0.00000000       0.00000000       0.05000000 </v>
    </varray>
   </crystal>
   <varray name="positions" >
    <v>       0.61272504       0.71351991       0.50124200 </v>
    <v>       0.45283930       0.71484304       0.51002810 </v>
    <v>       0.53432649       0.79486422       0.48585584 </v>
    <v>       0.44591962       0.26677158       0.50254438 </v>
    <v>       0.60469050       0.26501079       0.51135552 </v>
    <v>       0.52601469       0.18607967       0.48651702 </v>
    <v>       0.03810638       0.79745513       0.46798574 </v>
    <v>       0.02426402       0.18439511       0.46990285 </v>
    <v>       0.03079903       0.96087462       0.49964631 </v>
    <v>       0.95220285       0.93066515       0.49525630 </v>
    <v>       0.95228840       0.87570014       0.48801227 </v>
    <v>       0.03653380       0.84972390       0.48409658 </v>
    <v>       0.11672670       0.87799017       0.49390368 </v>
    <v>       0.11217230       0.93282877       0.50105135 </v>
    <v>       0.02799178       0.01953507       0.49987375 </v>
    <v>       0.94642420       0.04749909       0.50145143 </v>
    <v>       0.94264800       0.10264611       0.49476108 </v>
    <v>       0.02397990       0.13137337       0.48532224 </v>
    <v>       0.10778088       0.10523031       0.48891546 </v>
    <v>       0.10705368       0.04995038       0.49570922 </v>
    <v>       0.61043254       0.76633239       0.49127426 </v>
    <v>       0.53234986       0.68934667       0.50848255 </v>
    <v>       0.45764587       0.76732155       0.49759952 </v>
    <v>       0.53138566       0.63099603       0.51388703 </v>
    <v>       0.61038222       0.60210003       0.49980379 </v>
    <v>       0.60898420       0.54716747       0.50176905 </v>
    <v>       0.52914524       0.51901724       0.51866096 </v>
    <v>       0.45067367       0.54839475       0.53389195 </v>
    <v>       0.45146168       0.60335368       0.53108221 </v>
    <v>       0.69754071       0.79433529       0.48771125 </v>
    <v>       0.77264944       0.77013506       0.51567932 </v>
    <v>       0.85476779       0.79612331       0.51530428 </v>
    <v>       0.86589677       0.84688030       0.48547776 </v>
    <v>       0.79058182       0.87041602       0.45635422 </v>
    <v>       0.70742492       0.84508576       0.45830017 </v>
    <v>       0.37140900       0.79650790       0.49729152 </v>
    <v>       0.36438841       0.84563953       0.46371074 </v>
    <v>       0.28191618       0.87152550       0.46173965 </v>
    <v>       0.20440487       0.85029139       0.49529184 </v>
    <v>       0.21313545       0.80189398       0.53109471 </v>
    <v>       0.29472920       0.77500550       0.53106279 </v>
    <v>       0.44929663       0.21440101       0.49227999 </v>
    <v>       0.52543344       0.29063263       0.50975810 </v>
    <v>       0.60129446       0.21308492       0.49852971 </v>
    <v>       0.52582871       0.34878774       0.51486935 </v>
    <v>       0.44860468       0.37821149       0.50040535 </v>
    <v>       0.44982682       0.43308941       0.50196247 </v>
    <v>       0.52760993       0.46063063       0.51884676 </v>
    <v>       0.60419814       0.43069031       0.53439015 </v>
    <v>       0.60369384       0.37581899       0.53196432 </v>
    <v>       0.36258640       0.18659502       0.48867099 </v>
    <v>       0.28413810       0.20974745       0.51651164 </v>
    <v>       0.20205530       0.18378247       0.51615029 </v>
    <v>       0.19444788       0.13416576       0.48642507 </v>
    <v>       0.27323106       0.11175613       0.45736305 </v>
    <v>       0.35615756       0.13698181       0.45932958 </v>
    <v>       0.68756112       0.18391671       0.49809858 </v>
    <v>       0.69865031       0.13618564       0.46436822 </v>
    <v>       0.78136358       0.11038554       0.46243995 </v>
    <v>       0.85479545       0.13024923       0.49616467 </v>
    <v>       0.84171905       0.17716448       0.53207534 </v>
    <v>       0.76014149       0.20404003       0.53200055 </v>
    <v>       0.88681130       0.95006829       0.49783055 </v>
    <v>       0.17213884       0.03043903       0.49807965 </v>
    <v>       0.10090806       0.78599325       0.46376376 </v>
    <v>       0.96197965       0.19599239       0.46543502 </v>
    <v>       0.91120018       0.77706351       0.53887654 </v>
    <v>       0.76487865       0.73083347       0.53872505 </v>
    <v>       0.79762921       0.90906943       0.43123168 </v>
    <v>       0.64947904       0.86405732       0.43636979 </v>
    <v>       0.42423463       0.86261183       0.43814749 </v>
    <v>       0.27664663       0.90858177       0.43311091 </v>
    <v>       0.30050473       0.73732343       0.55811629 </v>
    <v>       0.15566618       0.78594300       0.56086191 </v>
    <v>       0.39026567       0.62574809       0.54223196 </v>
    <v>       0.38838508       0.52775184       0.54888788 </v>
    <v>       0.67028194       0.52557313       0.48812468 </v>
    <v>       0.67216412       0.62358623       0.48596801 </v>
    <v>       0.14285342       0.20197672       0.53964934 </v>
    <v>       0.28914558       0.24818298       0.53946601 </v>
    <v>       0.26917934       0.07408921       0.43228605 </v>
    <v>       0.41671719       0.11883984       0.43749129 </v>
    <v>       0.64190923       0.12027236       0.43866994 </v>
    <v>       0.79009815       0.07450602       0.43372333 </v>
    <v>       0.75105221       0.24062213       0.55908480 </v>
    <v>       0.89556488       0.19190268       0.56194694 </v>
    <v>       0.66352980       0.35302269       0.54335689 </v>
    <v>       0.66469459       0.45079774       0.54931333 </v>
    <v>       0.39024061       0.45518522       0.48799563 </v>
    <v>       0.38847810       0.35723812       0.48658733 </v>
    <v>       0.17505300       0.95340441       0.50878385 </v>
    <v>       0.88262330       0.02657432       0.50894238 </v>
   </varray>
  </structure>
  <varray name="forces" >
   <v>      -0.00054263       0.00352709       0.00292557 </v>
   <v>       0.00144652      -0.00009298       0.00359723 </v>
   <v>      -0.00277686       0.00026549       0.00292454 </v>
   <v>      -0.00398573      -0.00565237       0.00164431 </v>
   <v>       0.00247472      -0.00173058       0.00814745 </v>
   <v>       0.00200200       0.00165451       0.00876670 </v>
   <v>      -0.00180737      -0.00213186      -0.00272418 </v>
   <v>      -0.00019357       0.00047628      -0.00145921 </v>
   <v>      -0.00331870       0.00099545      -0.00197750 </v>
   <v>       0.00024539      -0.00127980      -0.00320731 </v>
   <v>      -0.00098829       0.00262227      -0.00200132 </v>
   <v>      -0.00145839      -0.00099236      -0.00078015 </v>
   <v>       0.00280630      -0.00211454      -0.00128622 </v>
   <v>      -0.00160579       0.00299127      -0.00071503 </v>
   <v>      -0.00520871      -0.00250828      -0.00167306 </v>
   <v>      -0.00335998      -0.00086164      -0.00172338 </v>
   <v>       0.00188691      -0.00289784      -0.00167948 </v>
   <v>      -0.00267419       0.00074409      -0.00168233 </v>
   <v>      -0.00025668       0.00492175      -0.00128423 </v>
   <v>      -0.00057042       0.00211089      -0.00365006 </v>
   <v>       0.00107502      -0.00025213      -0.00231726 </v>
   <v>       0.00404665       0.00156366      -0.00309634 </v>
   <v>       0.00090711      -0.00193429      -0.00330416 </v>
   <v>       0.00046295      -0.00129176       0.00219055 </v>
   <v>      -0.00289163       0.00305336       0.00202597 </v>
   <v>      -0.00078911      -0.00179816       0.00186807 </v>
   <v>      -0.00075639       0.00175883       0.00085117 </v>
   <v>      -0.00033849       0.00254703       0.00233601 </v>
   <v>       0.00136586      -0.00375794      -0.00036568 </v>
   <v>      -0.00288663      -0.00414087       0.00222046 </v>
   <v>      -0.00032595       0.00068335      -0.00218363 </v>
   <v>       0.00153169       0.00301343      -0.00203780 </v>
   <v>      -0.00069181       0.00006942      -0.00202842 </v>
   <v>       0.00070435      -0.00147444      -0.00115884 </v>
   <v>       0.00593060       0.00148625      -0.00130836 </v>
   <v>      -0.00049014       0.00125973       0.00142284 </v>
   <v>       0.00438316      -0.00191716      -0.00096574 </v>
   <v>       0.00301839      -0.00105480      -0.00135116 </v>
   <v>      -0.00134064      -0.00303118       0.00072642 </v>
   <v>       0.00002778      -0.00073219      -0.00010209 </v>
   <v>      -0.00237675      -0.00108339       0.00050695 </v>
   <v>      -0.00323230      -0.00574110      -0.00336365 </v>
   <v>      -0.00060086      -0.00328193      -0.00814051 </v>
   <v>       0.00214642       0.00089264       0.00056549 </v>
   <v>      -0.00115370       0.00682821       0.00412411 </v>
   <v>      -0.00235020       0.00363252       0.00255263 </v>
   <v>      -0.00453922      -0.00042554       0.00189404 </v>
   <v>       0.00264043      -0.00346852      -0.00236970 </v>
   <v>       0.00036145      -0.00530894       0.00258550 </v>
   <v>       0.00177454       0.00426978       0.00307513 </v>
   <v>      -0.00178741       0.00472186       0.00355692 </v>
   <v>       0.00099207       0.00100773       0.00112109 </v>
   <v>      -0.00017984       0.00272010      -0.00011169 </v>
   <v>       0.00067479      -0.00037070       0.00028334 </v>
   <v>      -0.00245083       0.00359889       0.00049667 </v>
   <v>      -0.00011673       0.00355396       0.00084089 </v>
   <v>       0.00127249      -0.00213631       0.00072894 </v>
   <v>      -0.00240599       0.00295608      -0.00021790 </v>
   <v>       0.00107227       0.00368884       0.00014820 </v>
   <v>      -0.00171068      -0.00116027      -0.00253532 </v>
   <v>      -0.00013218      -0.00076951       0.00082906 </v>
   <v>      -0.00225128       0.00115323      -0.00007132 </v>
   <v>       0.00310129      -0.00258841      -0.00215540 </v>
   <v>       0.00491119      -0.00229841      -0.00104775 </v>
   <v>       0.00532067      -0.00107786      -0.00196024 </v>
   <v>      -0.00002697      -0.00067013      -0.00017376 </v>
   <v>       0.00207166      -0.00016810      -0.00113088 </v>
   <v>       0.00149848      -0.00191052       0.00081981 </v>
   <v>      -0.00055929      -0.00512746      -0.00013118 </v>
   <v>      -0.00006635      -0.00319263       0.00121435 </v>
   <v>      -0.00007734      -0.00010954      -0.00169901 </v>
   <v>       0.00051911       0.00507826      -0.00273308 </v>
   <v>       0.00082856       0.00296515      -0.00231079 </v>
   <v>       0.00310333       0.00125856      -0.00260402 </v>
   <v>      -0.00127119       0.00021581       0.00139129 </v>
   <v>       0.00012641      -0.00087118      -0.00012481 </v>
   <v>       0.00132670      -0.00144447       0.00050628 </v>
   <v>       0.00023752      -0.00103332       0.00211325 </v>
   <v>      -0.00162258      -0.00116843       0.00047009 </v>
   <v>      -0.00228982      -0.00374001       0.00045884 </v>
   <v>       0.00002951      -0.00086793      -0.00291763 </v>
   <v>       0.00029927       0.00134342      -0.00025081 </v>
   <v>       0.00032262       0.00190660       0.00079818 </v>
   <v>      -0.00056784       0.00201421      -0.00077017 </v>
   <v>       0.00022201       0.00008328       0.00265902 </v>
   <v>      -0.00040951      -0.00087062       0.00131768 </v>
   <v>      -0.00285534       0.00087376       0.00051605 </v>
   <v>      -0.00073450      -0.00007659       0.00113424 </v>
   <v>       0.00051616      -0.00052916       0.00346623 </v>
   <v>       0.00160902       0.00143468       0.00396930 </v>
   <v>       0.00242271       0.00068840      -0.00079989 </v>
   <v>       0.00131071       0.00050805      -0.00210843 </v>
  </varray>
  <varray name="stress" >
   <v>      -0.01400151       0.01912693      -0.00108242 </v>
   <v>       0.01912693      -0.01252990      -0.00175461 </v>
   <v>      -0.00108243      -0.00175461      -0.23339180 </v>
  </varray>
  <energy>
   <i name="e_fr_energy">   -661.54857288 </i>
   <i name="e_wo_entrp">   -661.54857288 </i>
   <i name="e_0_energy">     -0.00000000 </i>
  </energy>
  <time name="totalsc"> 1995.23 2016.42</time>
  <eigenvalues>
   <array>
    <dimension dim="1">band</dimension>
    <dimension dim="2">kpoint</dimension>
    <dimension dim="3">spin</dimension>
    <field>eigene</field>
    <field>occ</field>
    <set>
     <set comment="spin 1">
      <set comment="kpoint 1">
       <r>  -26.2953    1.0000 </r>
       <r>  -26.2945    1.0000 </r>
       <r>  -24.9733    1.0000 </r>
       <r>  -24.9729    1.0000 </r>
       <r>  -22.0776    1.0000 </r>
       <r>  -22.0734    1.0000 </r>
       <r>  -22.0534    1.0000 </r>
       <r>  -22.0465    1.0000 </r>
       <r>  -21.4619    1.0000 </r>
       <r>  -21.2904    1.0000 </r>
       <r>  -21.2491    1.0000 </r>
       <r>  -21.0609    1.0000 </r>
       <r>  -20.9913    1.0000 </r>
       <r>  -20.7614    1.0000 </r>
       <r>  -20.6900    1.0000 </r>
       <r>  -20.5109    1.0000 </r>
       <r>  -19.3877    1.0000 </r>
       <r>  -19.3640    1.0000 </r>
       <r>  -19.2100    1.0000 </r>
       <r>  -19.1322    1.0000 </r>
       <r>  -18.5689    1.0000 </r>
       <r>  -18.3200    1.0000 </r>
       <r>  -18.3046    1.0000 </r>
       <r>  -18.2427    1.0000 </r>
       <r>  -18.1541    1.0000 </r>
       <r>  -18.0644    1.0000 </r>
       <r>  -18.0379    1.0000 </r>
       <r>  -17.9445    1.0000 </r>
       <r>  -17.9400    1.0000 </r>
       <r>  -17.8180    1.0000 </r>
       <r>  -17.7016    1.0000 </r>
       <r>  -17.2528    1.0000 </r>
       <r>  -16.6517    1.0000 </r>
       <r>  -16.4421    1.0000 </r>
       <r>  -16.1693    1.0000 </r>
       <r>  -16.0868    1.0000 </r>
       <r>  -15.5600    1.0000 </r>
       <r>  -15.2614    1.0000 </r>
       <r>  -15.0981    1.0000 </r>
       <r>  -14.9941    1.0000 </r>
       <r>  -14.9402    1.0000 </r>
       <r>  -14.8548    1.0000 </r>
       <r>  -14.7890    1.0000 </r>
       <r>  -14.5407    1.0000 </r>
       <r>  -14.4714    1.0000 </r>
       <r>  -14.4697    1.0000 </r>
       <r>  -14.2188    1.0000 </r>
       <r>  -14.0592    1.0000 </r>
       <r>  -13.9317    1.0000 </r>
       <r>  -13.7089    1.0000 </r>
       <r>  -13.5861    1.0000 </r>
       <r>  -13.4885    1.0000 </r>
       <r>  -13.1512    1.0000 </r>
       <r>  -13.1312    1.0000 </r>
       <r>  -12.9501    1.0000 </r>
       <r>  -12.9190    1.0000 </r>
       <r>  -12.8283    1.0000 </r>
       <r>  -12.7614    1.0000 </r>
       <r>  -12.4746    1.0000 </r>
       <r>  -12.0327    1.0000 </r>
       <r>  -11.8884    1.0000 </r>
       <r>  -11.7426    1.0000 </r>
       <r>  -11.7374    1.0000 </r>
       <r>  -11.4795    1.0000 </r>
       <r>  -11.3433    1.0000 </r>
       <r>  -11.1683    1.0000 </r>
       <r>  -11.0491    1.0000 </r>
       <r>  -11.0321    1.0000 </r>
       <r>  -11.0003    1.0000 </r>
       <r>  -10.8739    1.0000 </r>
       <r>  -10.8706    1.0000 </r>
       <r>  -10.7007    1.0000 </r>
       <r>  -10.6195    1.0000 </r>
       <r>  -10.5520    1.0000 </r>
       <r>  -10.5495    1.0000 </r>
       <r>  -10.3932    1.0000 </r>
       <r>  -10.3743    1.0000 </r>
       <r>  -10.2630    1.0000 </r>
       <r>  -10.2269    1.0000 </r>
       <r>  -10.1236    1.0000 </r>
       <r>  -10.1129    1.0000 </r>
       <r>  -10.0260    1.0000 </r>
       <r>  -10.0152    1.0000 </r>
       <r>   -9.9405    1.0000 </r>
       <r>   -9.8317    1.0000 </r>
       <r>   -9.8255    1.0000 </r>
       <r>   -9.8112    1.0000 </r>
       <r>   -9.7801    1.0000 </r>
       <r>   -9.7002    1.0000 </r>
       <r>   -9.5908    1.0000 </r>
       <r>   -9.5659    1.0000 </r>
       <r>   -9.5157    1.0000 </r>
       <r>   -9.4711    1.0000 </r>
       <r>   -9.1779    1.0000 </r>
       <r>   -9.0817    1.0000 </r>
       <r>   -9.0579    1.0000 </r>
       <r>   -9.0291    1.0000 </r>
       <r>   -9.0107    1.0000 </r>
       <r>   -8.9185    1.0000 </r>
       <r>   -8.8223    1.0000 </r>
       <r>   -8.7825    1.0000 </r>
       <r>   -8.6857    1.0000 </r>
       <r>   -8.5839    1.0000 </r>
       <r>   -8.5540    1.0000 </r>
       <r>   -8.4992    1.0000 </r>
       <r>   -8.3932    1.0000 </r>
       <r>   -8.3093    1.0000 </r>
       <r>   -8.2505    1.0000 </r>
       <r>   -8.2478    1.0000 </r>
       <r>   -8.0960    1.0000 </r>
       <r>   -8.0873    1.0000 </r>
       <r>   -8.0298    1.0000 </r>
       <r>   -7.9943    1.0000 </r>
       <r>   -7.9301    1.0000 </r>
       <r>   -7.8648    1.0000 </r>
       <r>   -7.8507    1.0000 </r>
       <r>   -7.8177    1.0000 </r>
       <r>   -7.7539    1.0000 </r>
       <r>   -7.6266    1.0000 </r>
       <r>   -7.6114    1.0000 </r>
       <r>   -7.5207    1.0000 </r>
       <r>   -7.4711    1.0000 </r>
       <r>   -7.3546    1.0000 </r>
       <r>   -7.2608    1.0000 </r>
       <r>   -6.4957    1.0000 </r>
       <r>   -6.4824    1.0000 </r>
       <r>   -6.4208    1.0000 </r>
       <r>   -6.2675    1.0000 </r>
       <r>   -6.2114    1.0000 </r>
       <r>   -6.2036    1.0000 </r>
       <r>   -6.0495    1.0000 </r>
       <r>   -6.0038    1.0000 </r>
       <r>   -5.9977    1.0000 </r>
       <r>   -5.8733    1.0000 </r>
       <r>   -5.8677    1.0000 </r>
       <r>   -5.6292    1.0000 </r>
       <r>   -5.5849    1.0000 </r>
       <r>   -5.5683    1.0000 </r>
       <r>   -5.5428    1.0000 </r>
       <r>   -5.3115    1.0000 </r>
       <r>   -5.2873    1.0000 </r>
       <r>   -5.2426    1.0000 </r>
       <r>   -5.1017    1.0000 </r>
       <r>   -4.4321    1.0000 </r>
       <r>   -2.6000    0.0000 </r>
       <r>   -2.4628    0.0000 </r>
       <r>   -2.3670    0.0000 </r>
       <r>   -2.1670    0.0000 </r>
       <r>   -1.6262    0.0000 </r>
       <r>   -1.2421    0.0000 </r>
       <r>   -1.1832    0.0000 </r>
       <r>   -1.1516    0.0000 </r>
       <r>   -1.1361    0.0000 </r>
       <r>   -1.0918    0.0000 </r>
       <r>   -0.9331    0.0000 </r>
       <r>   -0.8673    0.0000 </r>
       <r>   -0.7095    0.0000 </r>
       <r>   -0.6908    0.0000 </r>
       <r>   -0.6663    0.0000 </r>
       <r>   -0.2573    0.0000 </r>
       <r>   -0.2152    0.0000 </r>
       <r>   -0.0460    0.0000 </r>
       <r>   -0.0052    0.0000 </r>
       <r>    0.2740    0.0000 </r>
       <r>    0.2962    0.0000 </r>
       <r>    0.3078    0.0000 </r>
       <r>    0.4218    0.0000 </r>
       <r>    0.5074    0.0000 </r>
       <r>    0.5122    0.0000 </r>
       <r>    0.6144    0.0000 </r>
       <r>    0.6148    0.0000 </r>
       <r>    0.6541    0.0000 </r>
       <r>    0.6547    0.0000 </r>
       <r>    0.6780    0.0000 </r>
       <r>    0.7573    0.0000 </r>
       <r>    0.7682    0.0000 </r>
       <r>    0.7723    0.0000 </r>
       <r>    0.9038    0.0000 </r>
       <r>    0.9307    0.0000 </r>
       <r>    1.0225    0.0000 </r>
       <r>    1.0303    0.0000 </r>
       <r>    1.0401    0.0000 </r>
       <r>    1.0630    0.0000 </r>
       <r>    1.0970    0.0000 </r>
       <r>    1.1851    0.0000 </r>
       <r>    1.2359    0.0000 </r>
       <r>    1.2401    0.0000 </r>
       <r>    1.2743    0.0000 </r>
       <r>    1.3509    0.0000 </r>
       <r>    1.3899    0.0000 </r>
       <r>    1.4245    0.0000 </r>
       <r>    1.4926    0.0000 </r>
      </set>
      <set comment="kpoint 2">
       <r>  -26.2953    1.0000 </r>
       <r>  -26.2945    1.0000 </r>
       <r>  -24.9733    1.0000 </r>
       <r>  -24.9729    1.0000 </r>
       <r>  -22.0776    1.0000 </r>
       <r>  -22.0734    1.0000 </r>
       <r>  -22.0534    1.0000 </r>
       <r>  -22.0465    1.0000 </r>
       <r>  -21.4618    1.0000 </r>
       <r>  -21.2903    1.0000 </r>
       <r>  -21.2491    1.0000 </r>
       <r>  -21.0612    1.0000 </r>
       <r>  -20.9915    1.0000 </r>
       <r>  -20.7612    1.0000 </r>
       <r>  -20.6900    1.0000 </r>
       <r>  -20.5108    1.0000 </r>
       <r>  -19.3876    1.0000 </r>
       <r>  -19.3639    1.0000 </r>
       <r>  -19.2099    1.0000 </r>
       <r>  -19.1323    1.0000 </r>
       <r>  -18.5695    1.0000 </r>
       <r>  -18.3202    1.0000 </r>
       <r>  -18.3042    1.0000 </r>
       <r>  -18.2431    1.0000 </r>
       <r>  -18.1542    1.0000 </r>
       <r>  -18.0651    1.0000 </r>
       <r>  -18.0372    1.0000 </r>
       <r>  -17.9462    1.0000 </r>
       <r>  -17.9389    1.0000 </r>
       <r>  -17.8173    1.0000 </r>
       <r>  -17.7003    1.0000 </r>
       <r>  -17.2531    1.0000 </r>
       <r>  -16.6514    1.0000 </r>
       <r>  -16.4419    1.0000 </r>
       <r>  -16.1727    1.0000 </r>
       <r>  -16.0834    1.0000 </r>
       <r>  -15.5612    1.0000 </r>
       <r>  -15.2637    1.0000 </r>
       <r>  -15.0977    1.0000 </r>
       <r>  -14.9957    1.0000 </r>
       <r>  -14.9435    1.0000 </r>
       <r>  -14.8471    1.0000 </r>
       <r>  -14.7893    1.0000 </r>
       <r>  -14.5419    1.0000 </r>
       <r>  -14.4899    1.0000 </r>
       <r>  -14.4487    1.0000 </r>
       <r>  -14.2183    1.0000 </r>
       <r>  -14.0596    1.0000 </r>
       <r>  -13.9316    1.0000 </r>
       <r>  -13.7092    1.0000 </r>
       <r>  -13.5865    1.0000 </r>
       <r>  -13.4889    1.0000 </r>
       <r>  -13.1517    1.0000 </r>
       <r>  -13.1307    1.0000 </r>
       <r>  -12.9507    1.0000 </r>
       <r>  -12.9185    1.0000 </r>
       <r>  -12.8291    1.0000 </r>
       <r>  -12.7610    1.0000 </r>
       <r>  -12.4746    1.0000 </r>
       <r>  -12.0394    1.0000 </r>
       <r>  -11.8832    1.0000 </r>
       <r>  -11.7555    1.0000 </r>
       <r>  -11.7243    1.0000 </r>
       <r>  -11.4805    1.0000 </r>
       <r>  -11.3423    1.0000 </r>
       <r>  -11.1664    1.0000 </r>
       <r>  -11.0484    1.0000 </r>
       <r>  -11.0329    1.0000 </r>
       <r>  -10.9993    1.0000 </r>
       <r>  -10.8772    1.0000 </r>
       <r>  -10.8670    1.0000 </r>
       <r>  -10.7011    1.0000 </r>
       <r>  -10.6195    1.0000 </r>
       <r>  -10.5528    1.0000 </r>
       <r>  -10.5493    1.0000 </r>
       <r>  -10.3942    1.0000 </r>
       <r>  -10.3732    1.0000 </r>
       <r>  -10.2632    1.0000 </r>
       <r>  -10.2270    1.0000 </r>
       <r>  -10.1233    1.0000 </r>
       <r>  -10.1132    1.0000 </r>
       <r>  -10.0275    1.0000 </r>
       <r>  -10.0136    1.0000 </r>
       <r>   -9.9406    1.0000 </r>
       <r>   -9.8325    1.0000 </r>
       <r>   -9.8282    1.0000 </r>
       <r>   -9.8084    1.0000 </r>
       <r>   -9.7794    1.0000 </r>
       <r>   -9.7004    1.0000 </r>
       <r>   -9.5917    1.0000 </r>
       <r>   -9.5661    1.0000 </r>
       <r>   -9.5155    1.0000 </r>
       <r>   -9.4709    1.0000 </r>
       <r>   -9.1778    1.0000 </r>
       <r>   -9.0819    1.0000 </r>
       <r>   -9.0583    1.0000 </r>
       <r>   -9.0283    1.0000 </r>
       <r>   -9.0110    1.0000 </r>
       <r>   -8.9188    1.0000 </r>
       <r>   -8.8229    1.0000 </r>
       <r>   -8.7826    1.0000 </r>
       <r>   -8.6847    1.0000 </r>
       <r>   -8.5843    1.0000 </r>
       <r>   -8.5539    1.0000 </r>
       <r>   -8.4999    1.0000 </r>
       <r>   -8.3929    1.0000 </r>
       <r>   -8.3093    1.0000 </r>
       <r>   -8.2518    1.0000 </r>
       <r>   -8.2465    1.0000 </r>
       <r>   -8.0968    1.0000 </r>
       <r>   -8.0859    1.0000 </r>
       <r>   -8.0297    1.0000 </r>
       <r>   -7.9941    1.0000 </r>
       <r>   -7.9305    1.0000 </r>
       <r>   -7.8670    1.0000 </r>
       <r>   -7.8484    1.0000 </r>
       <r>   -7.8178    1.0000 </r>
       <r>   -7.7533    1.0000 </r>
       <r>   -7.6270    1.0000 </r>
       <r>   -7.6107    1.0000 </r>
       <r>   -7.5207    1.0000 </r>
       <r>   -7.4713    1.0000 </r>
       <r>   -7.3544    1.0000 </r>
       <r>   -7.2609    1.0000 </r>
       <r>   -6.5017    1.0000 </r>
       <r>   -6.4779    1.0000 </r>
       <r>   -6.4205    1.0000 </r>
       <r>   -6.2677    1.0000 </r>
       <r>   -6.2113    1.0000 </r>
       <r>   -6.2036    1.0000 </r>
       <r>   -6.0495    1.0000 </r>
       <r>   -6.0055    1.0000 </r>
       <r>   -5.9953    1.0000 </r>
       <r>   -5.8733    1.0000 </r>
       <r>   -5.8677    1.0000 </r>
       <r>   -5.6292    1.0000 </r>
       <r>   -5.5850    1.0000 </r>
       <r>   -5.5684    1.0000 </r>
       <r>   -5.5425    1.0000 </r>
       <r>   -5.3115    1.0000 </r>
       <r>   -5.2873    1.0000 </r>
       <r>   -5.2427    1.0000 </r>
       <r>   -5.1017    1.0000 </r>
       <r>   -4.4322    1.0000 </r>
       <r>   -2.6002    0.0000 </r>
       <r>   -2.4622    0.0000 </r>
       <r>   -2.3669    0.0000 </r>
       <r>   -2.1670    0.0000 </r>
       <r>   -1.6277    0.0000 </r>
       <r>   -1.2462    0.0000 </r>
       <r>   -1.1857    0.0000 </r>
       <r>   -1.1467    0.0000 </r>
       <r>   -1.1357    0.0000 </r>
       <r>   -1.0911    0.0000 </r>
       <r>   -0.9327    0.0000 </r>
       <r>   -0.8654    0.0000 </r>
       <r>   -0.7096    0.0000 </r>
       <r>   -0.6908    0.0000 </r>
       <r>   -0.6651    0.0000 </r>
       <r>   -0.2569    0.0000 </r>
       <r>   -0.2149    0.0000 </r>
       <r>   -0.0456    0.0000 </r>
       <r>   -0.0048    0.0000 </r>
       <r>    0.2689    0.0000 </r>
       <r>    0.2925    0.0000 </r>
       <r>    0.3124    0.0000 </r>
       <r>    0.4206    0.0000 </r>
       <r>    0.5051    0.0000 </r>
       <r>    0.5133    0.0000 </r>
       <r>    0.6108    0.0000 </r>
       <r>    0.6148    0.0000 </r>
       <r>    0.6473    0.0000 </r>
       <r>    0.6611    0.0000 </r>
       <r>    0.6814    0.0000 </r>
       <r>    0.7572    0.0000 </r>
       <r>    0.7701    0.0000 </r>
       <r>    0.7758    0.0000 </r>
       <r>    0.9040    0.0000 </r>
       <r>    0.9309    0.0000 </r>
       <r>    1.0199    0.0000 </r>
       <r>    1.0301    0.0000 </r>
       <r>    1.0385    0.0000 </r>
       <r>    1.0643    0.0000 </r>
       <r>    1.0976    0.0000 </r>
       <r>    1.1871    0.0000 </r>
       <r>    1.2320    0.0000 </r>
       <r>    1.2436    0.0000 </r>
       <r>    1.2739    0.0000 </r>
       <r>    1.3499    0.0000 </r>
       <r>    1.3907    0.0000 </r>
       <r>    1.4271    0.0000 </r>
       <r>    1.4837    0.0000 </r>
      </set>
      <set comment="kpoint 3">
       <r>  -26.2953    1.0000 </r>
       <r>  -26.2945    1.0000 </r>
       <r>  -24.9733    1.0000 </r>
       <r>  -24.9729    1.0000 </r>
       <r>  -22.0776    1.0000 </r>
       <r>  -22.0735    1.0000 </r>
       <r>  -22.0534    1.0000 </r>
       <r>  -22.0465    1.0000 </r>
       <r>  -21.4614    1.0000 </r>
       <r>  -21.2900    1.0000 </r>
       <r>  -21.2491    1.0000 </r>
       <r>  -21.0621    1.0000 </r>
       <r>  -20.9923    1.0000 </r>
       <r>  -20.7605    1.0000 </r>
       <r>  -20.6899    1.0000 </r>
       <r>  -20.5102    1.0000 </r>
       <r>  -19.3874    1.0000 </r>
       <r>  -19.3635    1.0000 </r>
       <r>  -19.2096    1.0000 </r>
       <r>  -19.1327    1.0000 </r>
       <r>  -18.5714    1.0000 </r>
       <r>  -18.3210    1.0000 </r>
       <r>  -18.3032    1.0000 </r>
       <r>  -18.2442    1.0000 </r>
       <r>  -18.1544    1.0000 </r>
       <r>  -18.0669    1.0000 </r>
       <r>  -18.0354    1.0000 </r>
       <r>  -17.9494    1.0000 </r>
       <r>  -17.9375    1.0000 </r>
       <r>  -17.8153    1.0000 </r>
       <r>  -17.6963    1.0000 </r>
       <r>  -17.2540    1.0000 </r>
       <r>  -16.6505    1.0000 </r>
       <r>  -16.4412    1.0000 </r>
       <r>  -16.1817    1.0000 </r>
       <r>  -16.0745    1.0000 </r>
       <r>  -15.5648    1.0000 </r>
       <r>  -15.2704    1.0000 </r>
       <r>  -15.0965    1.0000 </r>
       <r>  -15.0022    1.0000 </r>
       <r>  -14.9475    1.0000 </r>
       <r>  -14.8288    1.0000 </r>
       <r>  -14.7902    1.0000 </r>
       <r>  -14.5473    1.0000 </r>
       <r>  -14.5026    1.0000 </r>
       <r>  -14.4263    1.0000 </r>
       <r>  -14.2166    1.0000 </r>
       <r>  -14.0608    1.0000 </r>
       <r>  -13.9314    1.0000 </r>
       <r>  -13.7099    1.0000 </r>
       <r>  -13.5878    1.0000 </r>
       <r>  -13.4901    1.0000 </r>
       <r>  -13.1529    1.0000 </r>
       <r>  -13.1290    1.0000 </r>
       <r>  -12.9525    1.0000 </r>
       <r>  -12.9172    1.0000 </r>
       <r>  -12.8315    1.0000 </r>
       <r>  -12.7598    1.0000 </r>
       <r>  -12.4748    1.0000 </r>
       <r>  -12.0569    1.0000 </r>
       <r>  -11.8708    1.0000 </r>
       <r>  -11.7698    1.0000 </r>
       <r>  -11.7090    1.0000 </r>
       <r>  -11.4836    1.0000 </r>
       <r>  -11.3396    1.0000 </r>
       <r>  -11.1607    1.0000 </r>
       <r>  -11.0466    1.0000 </r>
       <r>  -11.0345    1.0000 </r>
       <r>  -10.9965    1.0000 </r>
       <r>  -10.8813    1.0000 </r>
       <r>  -10.8618    1.0000 </r>
       <r>  -10.7020    1.0000 </r>
       <r>  -10.6196    1.0000 </r>
       <r>  -10.5548    1.0000 </r>
       <r>  -10.5491    1.0000 </r>
       <r>  -10.3967    1.0000 </r>
       <r>  -10.3705    1.0000 </r>
       <r>  -10.2637    1.0000 </r>
       <r>  -10.2272    1.0000 </r>
       <r>  -10.1227    1.0000 </r>
       <r>  -10.1140    1.0000 </r>
       <r>  -10.0307    1.0000 </r>
       <r>  -10.0100    1.0000 </r>
       <r>   -9.9410    1.0000 </r>
       <r>   -9.8352    1.0000 </r>
       <r>   -9.8333    1.0000 </r>
       <r>   -9.8030    1.0000 </r>
       <r>   -9.7776    1.0000 </r>
       <r>   -9.7011    1.0000 </r>
       <r>   -9.5943    1.0000 </r>
       <r>   -9.5667    1.0000 </r>
       <r>   -9.5150    1.0000 </r>
       <r>   -9.4705    1.0000 </r>
       <r>   -9.1777    1.0000 </r>
       <r>   -9.0827    1.0000 </r>
       <r>   -9.0594    1.0000 </r>
       <r>   -9.0261    1.0000 </r>
       <r>   -9.0114    1.0000 </r>
       <r>   -8.9196    1.0000 </r>
       <r>   -8.8246    1.0000 </r>
       <r>   -8.7826    1.0000 </r>
       <r>   -8.6820    1.0000 </r>
       <r>   -8.5854    1.0000 </r>
       <r>   -8.5535    1.0000 </r>
       <r>   -8.5020    1.0000 </r>
       <r>   -8.3919    1.0000 </r>
       <r>   -8.3091    1.0000 </r>
       <r>   -8.2538    1.0000 </r>
       <r>   -8.2443    1.0000 </r>
       <r>   -8.0985    1.0000 </r>
       <r>   -8.0826    1.0000 </r>
       <r>   -8.0296    1.0000 </r>
       <r>   -7.9936    1.0000 </r>
       <r>   -7.9319    1.0000 </r>
       <r>   -7.8715    1.0000 </r>
       <r>   -7.8435    1.0000 </r>
       <r>   -7.8182    1.0000 </r>
       <r>   -7.7516    1.0000 </r>
       <r>   -7.6278    1.0000 </r>
       <r>   -7.6088    1.0000 </r>
       <r>   -7.5208    1.0000 </r>
       <r>   -7.4720    1.0000 </r>
       <r>   -7.3537    1.0000 </r>
       <r>   -7.2615    1.0000 </r>
       <r>   -6.5123    1.0000 </r>
       <r>   -6.4720    1.0000 </r>
       <r>   -6.4191    1.0000 </r>
       <r>   -6.2680    1.0000 </r>
       <r>   -6.2107    1.0000 </r>
       <r>   -6.2037    1.0000 </r>
       <r>   -6.0494    1.0000 </r>
       <r>   -6.0082    1.0000 </r>
       <r>   -5.9905    1.0000 </r>
       <r>   -5.8733    1.0000 </r>
       <r>   -5.8676    1.0000 </r>
       <r>   -5.6293    1.0000 </r>
       <r>   -5.5855    1.0000 </r>
       <r>   -5.5686    1.0000 </r>
       <r>   -5.5416    1.0000 </r>
       <r>   -5.3116    1.0000 </r>
       <r>   -5.2871    1.0000 </r>
       <r>   -5.2429    1.0000 </r>
       <r>   -5.1017    1.0000 </r>
       <r>   -4.4325    1.0000 </r>
       <r>   -2.6006    0.0000 </r>
       <r>   -2.4604    0.0000 </r>
       <r>   -2.3668    0.0000 </r>
       <r>   -2.1672    0.0000 </r>
       <r>   -1.6323    0.0000 </r>
       <r>   -1.2564    0.0000 </r>
       <r>   -1.1923    0.0000 </r>
       <r>   -1.1356    0.0000 </r>
       <r>   -1.1346    0.0000 </r>
       <r>   -1.0884    0.0000 </r>
       <r>   -0.9315    0.0000 </r>
       <r>   -0.8600    0.0000 </r>
       <r>   -0.7096    0.0000 </r>
       <r>   -0.6906    0.0000 </r>
       <r>   -0.6616    0.0000 </r>
       <r>   -0.2556    0.0000 </r>
       <r>   -0.2140    0.0000 </r>
       <r>   -0.0447    0.0000 </r>
       <r>   -0.0037    0.0000 </r>
       <r>    0.2568    0.0000 </r>
       <r>    0.2853    0.0000 </r>
       <r>    0.3191    0.0000 </r>
       <r>    0.4172    0.0000 </r>
       <r>    0.4997    0.0000 </r>
       <r>    0.5153    0.0000 </r>
       <r>    0.6014    0.0000 </r>
       <r>    0.6126    0.0000 </r>
       <r>    0.6447    0.0000 </r>
       <r>    0.6659    0.0000 </r>
       <r>    0.6898    0.0000 </r>
       <r>    0.7569    0.0000 </r>
       <r>    0.7735    0.0000 </r>
       <r>    0.7874    0.0000 </r>
       <r>    0.9047    0.0000 </r>
       <r>    0.9311    0.0000 </r>
       <r>    1.0130    0.0000 </r>
       <r>    1.0284    0.0000 </r>
       <r>    1.0367    0.0000 </r>
       <r>    1.0662    0.0000 </r>
       <r>    1.0992    0.0000 </r>
       <r>    1.1912    0.0000 </r>
       <r>    1.2277    0.0000 </r>
       <r>    1.2470    0.0000 </r>
       <r>    1.2733    0.0000 </r>
       <r>    1.3462    0.0000 </r>
       <r>    1.3895    0.0000 </r>
       <r>    1.4300    0.0000 </r>
       <r>    1.4669    0.0000 </r>
      </set>
      <set comment="kpoint 4">
[...]
       <r>   -25.0354     0.0000     4.0000 </r>
       <r>   -24.9334    39.2498     8.0000 </r>
       <r>   -24.8315     0.0000     8.0000 </r>
       <r>   -24.7296     0.0000     8.0000 </r>
       <r>   -24.6277     0.0000     8.0000 </r>
       <r>   -24.5258     0.0000     8.0000 </r>
       <r>   -24.4239     0.0000     8.0000 </r>
       <r>   -24.3220     0.0000     8.0000 </r>
       <r>   -24.2201     0.0000     8.0000 </r>
       <r>   -24.1182     0.0000     8.0000 </r>
       <r>   -24.0162     0.0000     8.0000 </r>
       <r>   -23.9143     0.0000     8.0000 </r>
       <r>   -23.8124     0.0000     8.0000 </r>
       <r>   -23.7105     0.0000     8.0000 </r>
       <r>   -23.6086     0.0000     8.0000 </r>
       <r>   -23.5067     0.0000     8.0000 </r>
       <r>   -23.4048     0.0000     8.0000 </r>
       <r>   -23.3029     0.0000     8.0000 </r>
       <r>   -23.2010     0.0000     8.0000 </r>
       <r>   -23.0990     0.0000     8.0000 </r>
       <r>   -22.9971     0.0000     8.0000 </r>
       <r>   -22.8952     0.0000     8.0000 </r>
       <r>   -22.7933     0.0000     8.0000 </r>
       <r>   -22.6914     0.0000     8.0000 </r>
       <r>   -22.5895     0.0000     8.0000 </r>
       <r>   -22.4876     0.0000     8.0000 </r>
       <r>   -22.3857     0.0000     8.0000 </r>
       <r>   -22.2837     0.0000     8.0000 </r>
       <r>   -22.1818     0.0000     8.0000 </r>
       <r>   -22.0799    11.1576     9.1371 </r>
       <r>   -21.9780    39.2479    16.0000 </r>
       <r>   -21.8761     0.0000    16.0000 </r>
       <r>   -21.7742     0.0000    16.0000 </r>
       <r>   -21.6723     0.0000    16.0000 </r>
       <r>   -21.5704     0.0000    16.0000 </r>
       <r>   -21.4685     1.1893    16.1212 </r>
       <r>   -21.3665     7.3562    18.0000 </r>
       <r>   -21.2646    19.2049    19.9572 </r>
       <r>   -21.1627     8.5837    22.0000 </r>
       <r>   -21.0608    16.3555    23.6668 </r>
       <r>   -20.9589    19.6247    26.0000 </r>
       <r>   -20.8570     0.0000    26.0000 </r>
       <r>   -20.7551     7.5923    26.7737 </r>
       <r>   -20.6532    26.4907    30.0000 </r>
       <r>   -20.5513     0.0000    30.0000 </r>
       <r>   -20.4493    19.6249    32.0000 </r>
       <r>   -20.3474     0.0000    32.0000 </r>
       <r>   -20.2455     0.0000    32.0000 </r>
       <r>   -20.1436     0.0000    32.0000 </r>
       <r>   -20.0417     0.0000    32.0000 </r>
       <r>   -19.9398     0.0000    32.0000 </r>
       <r>   -19.8379     0.0000    32.0000 </r>
       <r>   -19.7360     0.0000    32.0000 </r>
       <r>   -19.6341     0.0000    32.0000 </r>
       <r>   -19.5321     0.0000    32.0000 </r>
       <r>   -19.4302     0.0000    32.0000 </r>
       <r>   -19.3283    39.2321    35.9982 </r>
       <r>   -19.2264     0.0246    36.0025 </r>
       <r>   -19.1245    34.7372    39.9652 </r>
       <r>   -19.0226     0.0000    40.0000 </r>
       <r>   -18.9207     0.0000    40.0000 </r>
       <r>   -18.8188     0.0000    40.0000 </r>
       <r>   -18.7169     0.0000    40.0000 </r>
       <r>   -18.6149     9.2951    40.9473 </r>
       <r>   -18.5130     9.0170    41.9939 </r>
       <r>   -18.4111     0.0000    42.0000 </r>
       <r>   -18.3092    23.6758    44.4128 </r>
       <r>   -18.2073    29.3569    48.8169 </r>
       <r>   -18.1054    13.2977    50.4052 </r>
       <r>   -18.0035    21.1713    53.2076 </r>
       <r>   -17.9016    34.6963    57.9862 </r>
       <r>   -17.7997     6.2476    58.6367 </r>
       <r>   -17.6977    12.9292    60.1676 </r>
       <r>   -17.5958     6.9697    61.2103 </r>
       <r>   -17.4939     4.9603    61.9055 </r>
       <r>   -17.3920     0.0000    62.0000 </r>
       <r>   -17.2901     9.6773    62.9862 </r>
       <r>   -17.1882     7.3579    64.0000 </r>
       <r>   -17.0863     0.0000    64.0000 </r>
       <r>   -16.9844     0.0000    64.0000 </r>
       <r>   -16.8825     0.0000    64.0000 </r>
       <r>   -16.7805     0.0000    64.0000 </r>
       <r>   -16.6786     0.0004    64.0000 </r>
       <r>   -16.5767    15.2189    65.5510 </r>
       <r>   -16.4748     2.6984    66.0000 </r>
       <r>   -16.3729    19.8947    68.0275 </r>
       <r>   -16.2710     3.4443    69.0260 </r>
       <r>   -16.1691     7.7644    69.9163 </r>
       <r>   -16.0672    11.8583    71.2085 </r>
       <r>   -15.9652     2.9531    71.6260 </r>
       <r>   -15.8633     2.6983    72.0000 </r>
       <r>   -15.7614     0.5533    72.0564 </r>
       <r>   -15.6595     2.6071    72.4657 </r>
       <r>   -15.5576     3.9375    72.9263 </r>
       <r>   -15.4557     6.6881    73.8066 </r>
       <r>   -15.3538     9.2248    75.3401 </r>
       <r>   -15.2519     9.6968    76.4382 </r>
       <r>   -15.1500     8.1793    77.4086 </r>
       <r>   -15.0480     9.3805    78.5810 </r>
       <r>   -14.9461    18.5527    80.8157 </r>
       <r>   -14.8442    14.9898    82.6776 </r>
       <r>   -14.7423    14.4943    84.7522 </r>
       <r>   -14.6404     7.5451    85.5939 </r>
       <r>   -14.5385     9.9839    86.7425 </r>
       <r>   -14.4366    17.4829    89.1567 </r>
       <r>   -14.3347    11.6686    90.6142 </r>
       <r>   -14.2328     7.3545    91.7995 </r>
       <r>   -14.1308    10.5021    93.8203 </r>
       <r>   -14.0289    13.7621    95.6025 </r>
       <r>   -13.9270    11.4098    97.0378 </r>
       <r>   -13.8251     6.9459    97.9579 </r>
       <r>   -13.7232    10.7836    99.2990 </r>
       <r>   -13.6213     6.0576   100.9923 </r>
       <r>   -13.5194    15.4165   102.7961 </r>
       <r>   -13.4175     3.6792   104.0000 </r>
       <r>   -13.3156     0.0000   104.0000 </r>
       <r>   -13.2136     0.0000   104.0000 </r>
       <r>   -13.1117    34.4779   107.5137 </r>
       <r>   -13.0098     0.0000   108.0000 </r>
       <r>   -12.9079    34.4481   111.5107 </r>
       <r>   -12.8060    27.8958   114.8429 </r>
       <r>   -12.7041     6.1326   116.0000 </r>
       <r>   -12.6022     0.0000   116.0000 </r>
       <r>   -12.5003     0.0920   116.0094 </r>
       <r>   -12.3984     8.8839   117.5305 </r>
       <r>   -12.2964    12.0343   118.8265 </r>
       <r>   -12.1945     3.0045   119.4312 </r>
       <r>   -12.0926     2.1586   119.6950 </r>
       <r>   -11.9907     3.3292   120.1143 </r>
       <r>   -11.8888     4.8467   121.1690 </r>
       <r>   -11.7869     5.8737   122.0486 </r>
       <r>   -11.6850    23.6836   124.8636 </r>
       <r>   -11.5831     6.1349   125.7002 </r>
       <r>   -11.4812     6.6857   126.4813 </r>
       <r>   -11.3792     9.0233   127.7696 </r>
       <r>   -11.2773     9.5309   128.9713 </r>
       <r>   -11.1754    16.2187   130.7279 </r>
       <r>   -11.0735     7.4649   131.8608 </r>
       <r>   -10.9716    25.5499   135.3040 </r>
       <r>   -10.8697    28.2797   139.1821 </r>
       <r>   -10.7678    22.1177   141.8791 </r>
       <r>   -10.6659    22.4308   144.4361 </r>
       <r>   -10.5639    28.5808   147.6877 </r>
       <r>   -10.4620    16.8661   150.2189 </r>
       <r>   -10.3601    16.1617   152.3221 </r>
       <r>   -10.2582    27.7964   156.2078 </r>
       <r>   -10.1563    23.8602   159.3567 </r>
       <r>   -10.0544    22.5709   162.0504 </r>
       <r>    -9.9525    30.0537   166.6629 </r>
       <r>    -9.8506    20.9388   170.2839 </r>
       <r>    -9.7487    33.2291   174.9367 </r>
       <r>    -9.6467    26.2201   178.1971 </r>
       <r>    -9.5448    27.2794   181.9801 </r>
       <r>    -9.4429    22.4603   185.1391 </r>
       <r>    -9.3410     3.4342   186.0000 </r>
       <r>    -9.2391     0.1156   186.0118 </r>
       <r>    -9.1372    26.8006   188.9813 </r>
       <r>    -9.0353    35.3639   193.1040 </r>
       <r>    -8.9334    24.0917   196.3053 </r>
       <r>    -8.8315    18.7043   199.0813 </r>
       <r>    -8.7295    17.1838   201.5262 </r>
       <r>    -8.6276    22.3182   204.2745 </r>
       <r>    -8.5257    36.6920   208.6644 </r>
       <r>    -8.4238    14.5215   210.8800 </r>
       <r>    -8.3219     9.4522   212.0133 </r>
       <r>    -8.2200    48.6163   217.9797 </r>
       <r>    -8.1181     1.0819   218.1103 </r>
       <r>    -8.0162    26.8399   222.6853 </r>
       <r>    -7.9143    47.1627   228.2816 </r>
       <r>    -7.8123    31.0501   232.2394 </r>
       <r>    -7.7104    31.0453   235.9889 </r>
       <r>    -7.6085    18.3362   237.8687 </r>
       <r>    -7.5066    43.3802   242.7710 </r>
       <r>    -7.4047     5.3971   244.0000 </r>
       <r>    -7.3028    19.5782   245.9953 </r>
       <r>    -7.2009    10.7934   248.0000 </r>
       <r>    -7.0990     0.0000   248.0000 </r>
       <r>    -6.9971     0.0000   248.0000 </r>
       <r>    -6.8951     0.0000   248.0000 </r>
       <r>    -6.7932     0.0000   248.0000 </r>
       <r>    -6.6913     0.0000   248.0000 </r>
       <r>    -6.5894    12.0871   249.2318 </r>
       <r>    -6.4875    14.8482   251.1382 </r>
       <r>    -6.3856     8.8273   252.5996 </r>
       <r>    -6.2837    25.6749   255.4916 </r>
       <r>    -6.1818    33.3708   259.4009 </r>
       <r>    -6.0799     0.0571   260.0058 </r>
       <r>    -5.9779    40.8430   264.6874 </r>
       <r>    -5.8760    17.7633   266.6853 </r>
       <r>    -5.7741     0.0000   270.0000 </r>
       <r>    -5.6722     0.0000   270.0000 </r>
       <r>    -5.5703    43.1067   274.3931 </r>
       <r>    -5.4684    23.0574   278.0000 </r>
       <r>    -5.3665     0.0000   278.0000 </r>
       <r>    -5.2646    40.5312   282.1306 </r>
       <r>    -5.1627     0.7352   284.0000 </r>
       <r>    -5.0607    19.6249   286.0000 </r>
       <r>    -4.9588     0.0000   286.0000 </r>
       <r>    -4.8569     0.0000   286.0000 </r>
       <r>    -4.7550     0.0000   286.0000 </r>
       <r>    -4.6531     0.0000   286.0000 </r>
       <r>    -4.5512     0.0000   286.0000 </r>
       <r>    -4.4493     1.9878   286.2026 </r>
       <r>    -4.3474     0.0000   288.0000 </r>
       <r>    -4.2454     0.0000   288.0000 </r>
       <r>    -4.1435     0.0000   288.0000 </r>
       <r>    -4.0416     0.0000   288.0000 </r>
       <r>    -3.9397     0.0000   288.0000 </r>
       <r>    -3.8378     0.0000   288.0000 </r>
       <r>    -3.7359     0.0000   288.0000 </r>
       <r>    -3.6340     0.0000   288.0000 </r>
       <r>    -3.5321     0.0000   288.0000 </r>
       <r>    -3.4302     0.0000   288.0000 </r>
       <r>    -3.3282     0.0000   288.0000 </r>
       <r>    -3.2263     0.0000   288.0000 </r>
       <r>    -3.1244     0.0000   288.0000 </r>
       <r>    -3.0225     0.0000   288.0000 </r>
       <r>    -2.9206     0.0000   288.0000 </r>
       <r>    -2.8187     0.0000   288.0000 </r>
       <r>    -2.7168     0.0000   288.0000 </r>
       <r>    -2.6149     2.4764   288.2524 </r>
       <r>    -2.5130     0.0000   290.0000 </r>
       <r>    -2.4110    10.3017   291.0499 </r>
       <r>    -2.3091    27.4748   294.0000 </r>
       <r>    -2.2072     4.6048   294.4693 </r>
       <r>    -2.1053    13.0014   296.0000 </r>
       <r>    -2.0034     0.0000   296.0000 </r>
       <r>    -1.9015     0.0000   296.0000 </r>
       <r>    -1.7996     3.4793   296.3546 </r>
       <r>    -1.6977     2.4087   296.6705 </r>
       <r>    -1.5958     6.8880   297.4520 </r>
       <r>    -1.4938     7.1744   298.4312 </r>
       <r>    -1.3919     4.4320   298.9767 </r>
       <r>    -1.2900    16.8402   300.7662 </r>
       <r>    -1.1881     9.8525   301.9291 </r>
       <r>    -1.0862    38.5536   305.9290 </r>
       <r>    -0.9843    12.9781   307.5976 </r>
       <r>    -0.8824     6.9049   308.8787 </r>
       <r>    -0.7805    12.0340   310.3264 </r>
       <r>    -0.6786    36.4314   314.8878 </r>
       <r>    -0.5766     7.5330   316.5677 </r>
       <r>    -0.4747     4.7355   317.1826 </r>
       <r>    -0.3728     2.9993   317.5307 </r>
       <r>    -0.2709    12.7489   318.8993 </r>
       <r>    -0.1690    15.7550   320.9307 </r>
       <r>    -0.0671    24.4243   323.7391 </r>
       <r>     0.0348    14.9392   325.7726 </r>
       <r>     0.1367    15.7963   327.9098 </r>
       <r>     0.2386    10.7546   329.3460 </r>
       <r>     0.3406    29.5854   332.9151 </r>
       <r>     0.4425    15.9192   334.7974 </r>
       <r>     0.5444    34.2380   338.4893 </r>
       <r>     0.6463    34.5161   342.7676 </r>
       <r>     0.7482    32.9411   348.0572 </r>
       <r>     0.8501    36.2982   352.8743 </r>
       <r>     0.9520    30.5623   356.6897 </r>
       <r>     1.0539    54.0662   362.8850 </r>
       <r>     1.1559    33.7723   368.2168 </r>
       <r>     1.2578    46.1522   373.8286 </r>
       <r>     1.3597    33.3463   378.3485 </r>
       <r>     1.4616    36.1528   382.9345 </r>
       <r>     1.5635     5.6410   384.0000 </r>
       <r>     1.6654     0.0000   384.0000 </r>
       <r>     1.7673     0.0000   384.0000 </r>
       <r>     1.8692     0.0000   384.0000 </r>
       <r>     1.9711     0.0000   384.0000 </r>
       <r>     2.0731     0.0000   384.0000 </r>
       <r>     2.1750     0.0000   384.0000 </r>
       <r>     2.2769     0.0000   384.0000 </r>
       <r>     2.3788     0.0000   384.0000 </r>
       <r>     2.4807     0.0000   384.0000 </r>
       <r>     2.5826     0.0000   384.0000 </r>
       <r>     2.6845     0.0000   384.0000 </r>
       <r>     2.7864     0.0000   384.0000 </r>
       <r>     2.8883     0.0000   384.0000 </r>
      </set>
     </set>
    </array>
   </total>
  </dos>
 </calculation>
 <structure name="finalpos" >
  <crystal>
   <varray name="basis" >
    <v>      14.87674846       0.00085915       0.00000000 </v>
    <v>       0.01505457      25.29649716       0.00000000 </v>
    <v>       0.88180846       0.50053845      20.00000000 </v>
   </varray>
   <i name="volume">   7526.59224306 </i>
   <varray name="rec_basis" >
    <v>       0.06721899      -0.00004000      -0.00296271 </v>
    <v>      -0.00000228       0.03953117      -0.00098924 </v>
    <v>       0.00000000       0.00000000       0.05000000 </v>
   </varray>
  </crystal>
  <varray name="positions" >
   <v>       0.61272504       0.71351991       0.50124200 </v>
   <v>       0.45283930       0.71484304       0.51002810 </v>
   <v>       0.53432649       0.79486422       0.48585584 </v>
   <v>       0.44591962       0.26677158       0.50254438 </v>
   <v>       0.60469050       0.26501079       0.51135552 </v>
   <v>       0.52601469       0.18607967       0.48651702 </v>
   <v>       0.03810638       0.79745513       0.46798574 </v>
   <v>       0.02426402       0.18439511       0.46990285 </v>
   <v>       0.03079903       0.96087462       0.49964631 </v>
   <v>       0.95220285       0.93066515       0.49525630 </v>
   <v>       0.95228840       0.87570014       0.48801227 </v>
   <v>       0.03653380       0.84972390       0.48409658 </v>
   <v>       0.11672670       0.87799017       0.49390368 </v>
   <v>       0.11217230       0.93282877       0.50105135 </v>
   <v>       0.02799178       0.01953507       0.49987375 </v>
   <v>       0.94642420       0.04749909       0.50145143 </v>
   <v>       0.94264800       0.10264611       0.49476108 </v>
   <v>       0.02397990       0.13137337       0.48532224 </v>
   <v>       0.10778088       0.10523031       0.48891546 </v>
   <v>       0.10705368       0.04995038       0.49570922 </v>
   <v>       0.61043254       0.76633239       0.49127426 </v>
   <v>       0.53234986       0.68934667       0.50848255 </v>
   <v>       0.45764587       0.76732155       0.49759952 </v>
   <v>       0.53138566       0.63099603       0.51388703 </v>
   <v>       0.61038222       0.60210003       0.49980379 </v>
   <v>       0.60898420       0.54716747       0.50176905 </v>
   <v>       0.52914524       0.51901724       0.51866096 </v>
   <v>       0.45067367       0.54839475       0.53389195 </v>
   <v>       0.45146168       0.60335368       0.53108221 </v>
   <v>       0.69754071       0.79433529       0.48771125 </v>
   <v>       0.77264944       0.77013506       0.51567932 </v>
   <v>       0.85476779       0.79612331       0.51530428 </v>
   <v>       0.86589677       0.84688030       0.48547776 </v>
   <v>       0.79058182       0.87041602       0.45635422 </v>
   <v>       0.70742492       0.84508576       0.45830017 </v>
   <v>       0.37140900       0.79650790       0.49729152 </v>
   <v>       0.36438841       0.84563953       0.46371074 </v>
   <v>       0.28191618       0.87152550       0.46173965 </v>
   <v>       0.20440487       0.85029139       0.49529184 </v>
   <v>       0.21313545       0.80189398       0.53109471 </v>
   <v>       0.29472920       0.77500550       0.53106279 </v>
   <v>       0.44929663       0.21440101       0.49227999 </v>
   <v>       0.52543344       0.29063263       0.50975810 </v>
   <v>       0.60129446       0.21308492       0.49852971 </v>
   <v>       0.52582871       0.34878774       0.51486935 </v>
   <v>       0.44860468       0.37821149       0.50040535 </v>
   <v>       0.44982682       0.43308941       0.50196247 </v>
   <v>       0.52760993       0.46063063       0.51884676 </v>
   <v>       0.60419814       0.43069031       0.53439015 </v>
   <v>       0.60369384       0.37581899       0.53196432 </v>
   <v>       0.36258640       0.18659502       0.48867099 </v>
   <v>       0.28413810       0.20974745       0.51651164 </v>
   <v>       0.20205530       0.18378247       0.51615029 </v>
   <v>       0.19444788       0.13416576       0.48642507 </v>
   <v>       0.27323106       0.11175613       0.45736305 </v>
   <v>       0.35615756       0.13698181       0.45932958 </v>
   <v>       0.68756112       0.18391671       0.49809858 </v>
   <v>       0.69865031       0.13618564       0.46436822 </v>
   <v>       0.78136358       0.11038554       0.46243995 </v>
   <v>       0.85479545       0.13024923       0.49616467 </v>
   <v>       0.84171905       0.17716448       0.53207534 </v>
   <v>       0.76014149       0.20404003       0.53200055 </v>
   <v>       0.88681130       0.95006829       0.49783055 </v>
   <v>       0.17213884       0.03043903       0.49807965 </v>
   <v>       0.10090806       0.78599325       0.46376376 </v>
   <v>       0.96197965       0.19599239       0.46543502 </v>
   <v>       0.91120018       0.77706351       0.53887654 </v>
   <v>       0.76487865       0.73083347       0.53872505 </v>
   <v>       0.79762921       0.90906943       0.43123168 </v>
   <v>       0.64947904       0.86405732       0.43636979 </v>
   <v>       0.42423463       0.86261183       0.43814749 </v>
   <v>       0.27664663       0.90858177       0.43311091 </v>
   <v>       0.30050473       0.73732343       0.55811629 </v>
   <v>       0.15566618       0.78594300       0.56086191 </v>
   <v>       0.39026567       0.62574809       0.54223196 </v>
   <v>       0.38838508       0.52775184       0.54888788 </v>
   <v>       0.67028194       0.52557313       0.48812468 </v>
   <v>       0.67216412       0.62358623       0.48596801 </v>
   <v>       0.14285342       0.20197672       0.53964934 </v>
   <v>       0.28914558       0.24818298       0.53946601 </v>
   <v>       0.26917934       0.07408921       0.43228605 </v>
   <v>       0.41671719       0.11883984       0.43749129 </v>
   <v>       0.64190923       0.12027236       0.43866994 </v>
   <v>       0.79009815       0.07450602       0.43372333 </v>
   <v>       0.75105221       0.24062213       0.55908480 </v>
   <v>       0.89556488       0.19190268       0.56194694 </v>
   <v>       0.66352980       0.35302269       0.54335689 </v>
   <v>       0.66469459       0.45079774       0.54931333 </v>
   <v>       0.39024061       0.45518522       0.48799563 </v>
   <v>       0.38847810       0.35723812       0.48658733 </v>
   <v>       0.17505300       0.95340441       0.50878385 </v>
   <v>       0.88262330       0.02657432       0.50894238 </v>
  </varray>
 </structure>
</modeling>
