<?xml version="1.0" encoding="ISO-8859-1"?>
<modeling>
 <generator>
  <i name="program" type="string">vasp </i>
  <i name="version" type="string">5.4.4.18Apr17-6-g9f103f2a35  </i>
  <i name="subversion" type="string">(build Jun 07 2020 16:50:00) complex            parallel </i>
  <i name="platform" type="string">LinuxIFC </i>
  <i name="date" type="string">2023 02 19 </i>
  <i name="time" type="string">02:06:34 </i>
 </generator>
 <incar>
  <i type="string" name="SYSTEM">Simulation for cell shape cell volume r</i>
  <i type="int" name="ISTART">     1</i>
  <i type="string" name="PREC">high</i>
  <i type="string" name="ALGO">48</i>
  <i type="int" name="ICHARG">    11</i>
  <i type="int" name="NELM">   200</i>
  <i type="int" name="IBRION">    -1</i>
  <i name="EDIFF">      0.00001000</i>
  <i name="EDIFFG">     -0.01000000</i>
  <i type="int" name="NSW">     0</i>
  <i type="int" name="ISIF">     2</i>
  <i name="ENCUT">    500.00000000</i>
  <i name="POTIM">      0.30000000</i>
  <i type="string" name="LREAL">A</i>
  <i type="int" name="ISMEAR">     0</i>
  <i name="SIGMA">      0.01000000</i>
  <i type="int" name="NWRITE">     0</i>
  <i type="logical" name="LWAVE"> F  </i>
  <i type="logical" name="LCHARG"> F  </i>
  <v type="int" name="KPOINT_BSE">    -1     0     0     0</v>
  <i type="int" name="NELM">   200</i>
  <i type="string" name="GGA">PE</i>
 </incar>
 <structure name="primitive_cell" >
  <crystal>
   <varray name="basis" >
    <v>      22.14274415       0.00943513       0.00000000 </v>
    <v>     -11.06305377      19.14024548       0.00000000 </v>
    <v>       0.00000000       0.00000000      20.00000000 </v>
   </varray>
   <i name="volume">   8478.43880142 </i>
   <varray name="rec_basis" >
    <v>       0.04515040       0.02609691       0.00000000 </v>
    <v>      -0.00002226       0.05223307       0.00000000 </v>
    <v>       0.00000000       0.00000000       0.05000000 </v>
   </varray>
  </crystal>
  <varray name="positions" >
   <v>       0.43496816       0.47422569      -0.47139581 </v>
   <v>       0.46818842       0.43915749      -0.45864302 </v>
   <v>       0.47367355      -0.45856171      -0.48870283 </v>
   <v>       0.44122616      -0.41949369       0.49736901 </v>
   <v>      -0.45315253      -0.42540498      -0.49064927 </v>
   <v>      -0.45775372       0.47306978      -0.46076705 </v>
   <v>       0.42292132       0.36207950      -0.44377734 </v>
   <v>       0.36877301       0.35047333      -0.43785718 </v>
   <v>      -0.41917469      -0.45906343      -0.47573585 </v>
   <v>       0.32988421       0.49552328       0.46673855 </v>
   <v>       0.37290618      -0.44307345       0.47834743 </v>
   <v>       0.42459550       0.33099728      -0.48606726 </v>
   <v>       0.47272979      -0.36699746      -0.49911758 </v>
   <v>      -0.42134679      -0.37011879       0.49597349 </v>
   <v>       0.44620584       0.33890323      -0.38687324 </v>
   <v>       0.43951293       0.35989710      -0.34680671 </v>
   <v>      -0.42589802       0.43373250      -0.44722715 </v>
   <v>      -0.45794357       0.38763059      -0.42348745 </v>
   <v>       0.35370601      -0.38662202       0.47460852 </v>
   <v>      -0.36041396       0.44642385      -0.46674884 </v>
   <v>       0.45794921      -0.29303321       0.47508784 </v>
   <v>       0.24774549      -0.46605151       0.47106077 </v>
   <v>       0.40145285      -0.31501380       0.47496810 </v>
   <v>      -0.31446324      -0.49846558      -0.49062472 </v>
   <v>       0.28221460      -0.40946897       0.47240383 </v>
   <v>      -0.45988575       0.30180720      -0.45986508 </v>
   <v>      -0.35034024       0.38428091      -0.45879329 </v>
   <v>      -0.40529104       0.31532898      -0.45772225 </v>
   <v>       0.37861573      -0.26627714       0.47446477 </v>
   <v>       0.25842828      -0.36165244       0.47153811 </v>
   <v>       0.15701922      -0.48219718       0.49011558 </v>
   <v>       0.30715772      -0.29000935       0.47211883 </v>
   <v>       0.48957778       0.17851373      -0.48679080 </v>
   <v>      -0.28144763       0.39753639      -0.46048964 </v>
   <v>       0.49628183      -0.17236889       0.46649873 </v>
   <v>      -0.24049901       0.45211634      -0.46474964 </v>
   <v>      -0.39210059       0.25954155      -0.45837049 </v>
   <v>       0.43501799      -0.19062964       0.47823464 </v>
   <v>       0.13677503      -0.45001590       0.48762606 </v>
   <v>       0.18277207      -0.38075401       0.47230577 </v>
   <v>      -0.45455848       0.18737017      -0.46548734 </v>
   <v>       0.04669515       0.41268350       0.48148866 </v>
   <v>       0.28544770      -0.25524065       0.46995951 </v>
   <v>      -0.26755795       0.34249420      -0.46109893 </v>
   <v>      -0.32325522       0.27346007      -0.46007640 </v>
   <v>       0.41156415      -0.14584893       0.49772250 </v>
   <v>       0.06521374      -0.48212453      -0.49895060 </v>
   <v>       0.02426057       0.44475248       0.49720617 </v>
   <v>       0.35918166      -0.16684688      -0.49813584 </v>
   <v>       0.16530708      -0.33686627       0.46177876 </v>
   <v>      -0.44122637       0.13434586      -0.44820118 </v>
   <v>      -0.15521386       0.45109907      -0.43027996 </v>
   <v>      -0.30983312       0.23234250      -0.46414172 </v>
   <v>      -0.09429744      -0.43100363      -0.49227092 </v>
   <v>      -0.10709050      -0.45328480      -0.39320593 </v>
   <v>      -0.39436974       0.14839208      -0.42614186 </v>
   <v>      -0.19577191       0.35220468      -0.47109615 </v>
   <v>       0.45070870      -0.07414222      -0.48890238 </v>
   <v>      -0.48168623      -0.04532605      -0.47343602 </v>
   <v>       0.03751647      -0.44318621      -0.48005902 </v>
   <v>       0.45122723       0.03362359      -0.47514334 </v>
   <v>      -0.04313287       0.41108466      -0.48708292 </v>
   <v>      -0.14216335       0.41849211      -0.45442689 </v>
   <v>      -0.48067175       0.06311132      -0.46167772 </v>
   <v>      -0.06130783      -0.43005261      -0.45056902 </v>
   <v>      -0.07911564      -0.44731305      -0.35354340 </v>
   <v>      -0.35716657       0.01263348      -0.44373583 </v>
   <v>      -0.18772721       0.30515416      -0.49392789 </v>
   <v>      -0.01824555      -0.37606772      -0.44455902 </v>
   <v>      -0.03056273      -0.47596016      -0.46674099 </v>
   <v>      -0.07141614       0.44990778      -0.46962594 </v>
   <v>       0.41741508      -0.03416367      -0.48971844 </v>
   <v>       0.36195441      -0.05775172       0.49789456 </v>
   <v>      -0.44649853       0.02310177      -0.46115197 </v>
   <v>      -0.36905093       0.05514844      -0.44876087 </v>
   <v>      -0.34402423       0.10214215      -0.39225797 </v>
   <v>      -0.33953685       0.08757444      -0.49181809 </v>
   <v>      -0.36380201       0.07483205      -0.35174164 </v>
  </varray>
 </structure>
 <varray name="primitive_index" >
  <v type="int" >        1 </v>
  <v type="int" >       52 </v>
  <v type="int" >       65 </v>
  <v type="int" >        8 </v>
  <v type="int" >       64 </v>
  <v type="int" >       51 </v>
  <v type="int" >       53 </v>
  <v type="int" >       19 </v>
  <v type="int" >        7 </v>
  <v type="int" >       73 </v>
  <v type="int" >       63 </v>
  <v type="int" >       20 </v>
  <v type="int" >       32 </v>
  <v type="int" >       31 </v>
  <v type="int" >       76 </v>
  <v type="int" >       21 </v>
  <v type="int" >        2 </v>
  <v type="int" >       22 </v>
  <v type="int" >       62 </v>
  <v type="int" >       61 </v>
  <v type="int" >       16 </v>
  <v type="int" >       17 </v>
  <v type="int" >       47 </v>
  <v type="int" >       70 </v>
  <v type="int" >       48 </v>
  <v type="int" >       13 </v>
  <v type="int" >       60 </v>
  <v type="int" >       40 </v>
  <v type="int" >       46 </v>
  <v type="int" >       44 </v>
  <v type="int" >       34 </v>
  <v type="int" >       45 </v>
  <v type="int" >       72 </v>
  <v type="int" >       41 </v>
  <v type="int" >       75 </v>
  <v type="int" >       14 </v>
  <v type="int" >       39 </v>
  <v type="int" >       50 </v>
  <v type="int" >       10 </v>
  <v type="int" >       49 </v>
  <v type="int" >       43 </v>
  <v type="int" >       33 </v>
  <v type="int" >       18 </v>
  <v type="int" >       37 </v>
  <v type="int" >       38 </v>
  <v type="int" >       12 </v>
  <v type="int" >       67 </v>
  <v type="int" >       66 </v>
  <v type="int" >       36 </v>
  <v type="int" >       74 </v>
  <v type="int" >        6 </v>
  <v type="int" >       26 </v>
  <v type="int" >       15 </v>
  <v type="int" >       24 </v>
  <v type="int" >       77 </v>
  <v type="int" >       30 </v>
  <v type="int" >       42 </v>
  <v type="int" >       69 </v>
  <v type="int" >        5 </v>
  <v type="int" >        3 </v>
  <v type="int" >       11 </v>
  <v type="int" >        9 </v>
  <v type="int" >        4 </v>
  <v type="int" >       57 </v>
  <v type="int" >       56 </v>
  <v type="int" >       25 </v>
  <v type="int" >       27 </v>
  <v type="int" >       71 </v>
  <v type="int" >       23 </v>
  <v type="int" >       55 </v>
  <v type="int" >       54 </v>
  <v type="int" >       68 </v>
  <v type="int" >       35 </v>
  <v type="int" >       58 </v>
  <v type="int" >       59 </v>
  <v type="int" >       78 </v>
  <v type="int" >       28 </v>
  <v type="int" >       29 </v>
 </varray>
 <kpoints>
  <generation param="listgenerated">
   <i name="divisions" type="int">      20 </i>
   <v>       0.00000000       0.00000000       0.00000000 </v>
   <v>       0.50000000       0.00000000       0.00000000 </v>
   <v>       0.33333333       0.33333333       0.00000000 </v>
   <v>       0.00000000       0.00000000       0.00000000 </v>
  </generation>
  <varray name="kpointlist" >
   <v>       0.00000000       0.00000000       0.00000000 </v>
   <v>       0.02631579       0.00000000       0.00000000 </v>
   <v>       0.05263158       0.00000000       0.00000000 </v>
   <v>       0.07894737       0.00000000       0.00000000 </v>
   <v>       0.10526316       0.00000000       0.00000000 </v>
   <v>       0.13157895       0.00000000       0.00000000 </v>
   <v>       0.15789474       0.00000000       0.00000000 </v>
   <v>       0.18421053       0.00000000       0.00000000 </v>
   <v>       0.21052632       0.00000000       0.00000000 </v>
   <v>       0.23684211       0.00000000       0.00000000 </v>
   <v>       0.26315789       0.00000000       0.00000000 </v>
   <v>       0.28947368       0.00000000       0.00000000 </v>
   <v>       0.31578947       0.00000000       0.00000000 </v>
   <v>       0.34210526       0.00000000       0.00000000 </v>
   <v>       0.36842105       0.00000000       0.00000000 </v>
   <v>       0.39473684       0.00000000       0.00000000 </v>
   <v>       0.42105263       0.00000000       0.00000000 </v>
   <v>       0.44736842       0.00000000       0.00000000 </v>
   <v>       0.47368421       0.00000000       0.00000000 </v>
   <v>       0.50000000       0.00000000       0.00000000 </v>
   <v>       0.50000000       0.00000000       0.00000000 </v>
   <v>       0.49122807       0.01754386       0.00000000 </v>
   <v>       0.48245614       0.03508772       0.00000000 </v>
   <v>       0.47368421       0.05263158       0.00000000 </v>
   <v>       0.46491228       0.07017544       0.00000000 </v>
   <v>       0.45614035       0.08771930       0.00000000 </v>
   <v>       0.44736842       0.10526316       0.00000000 </v>
   <v>       0.43859649       0.12280702       0.00000000 </v>
   <v>       0.42982456       0.14035088       0.00000000 </v>
   <v>       0.42105263       0.15789474       0.00000000 </v>
   <v>       0.41228070       0.17543860       0.00000000 </v>
   <v>       0.40350877       0.19298246       0.00000000 </v>
   <v>       0.39473684       0.21052632       0.00000000 </v>
   <v>       0.38596491       0.22807018       0.00000000 </v>
   <v>       0.37719298       0.24561404       0.00000000 </v>
   <v>       0.36842105       0.26315789       0.00000000 </v>
   <v>       0.35964912       0.28070175       0.00000000 </v>
   <v>       0.35087719       0.29824561       0.00000000 </v>
   <v>       0.34210526       0.31578947       0.00000000 </v>
   <v>       0.33333333       0.33333333       0.00000000 </v>
   <v>       0.33333333       0.33333333       0.00000000 </v>
   <v>       0.31578947       0.31578947       0.00000000 </v>
   <v>       0.29824561       0.29824561       0.00000000 </v>
   <v>       0.28070175       0.28070175       0.00000000 </v>
   <v>       0.26315789       0.26315789       0.00000000 </v>
   <v>       0.24561404       0.24561404       0.00000000 </v>
   <v>       0.22807018       0.22807018       0.00000000 </v>
   <v>       0.21052632       0.21052632       0.00000000 </v>
   <v>       0.19298246       0.19298246       0.00000000 </v>
   <v>       0.17543860       0.17543860       0.00000000 </v>
   <v>       0.15789474       0.15789474       0.00000000 </v>
   <v>       0.14035088       0.14035088       0.00000000 </v>
   <v>       0.12280702       0.12280702       0.00000000 </v>
   <v>       0.10526316       0.10526316       0.00000000 </v>
   <v>       0.08771930       0.08771930       0.00000000 </v>
   <v>       0.07017544       0.07017544       0.00000000 </v>
   <v>       0.05263158       0.05263158       0.00000000 </v>
   <v>       0.03508772       0.03508772       0.00000000 </v>
   <v>       0.01754386       0.01754386       0.00000000 </v>
   <v>       0.00000000       0.00000000       0.00000000 </v>
  </varray>
  <varray name="weights" >
   <v>       0.01666667 </v>
   <v>       0.01666667 </v>
   <v>       0.01666667 </v>
   <v>       0.01666667 </v>
   <v>       0.01666667 </v>
   <v>       0.01666667 </v>
   <v>       0.01666667 </v>
   <v>       0.01666667 </v>
   <v>       0.01666667 </v>
   <v>       0.01666667 </v>
   <v>       0.01666667 </v>
   <v>       0.01666667 </v>
   <v>       0.01666667 </v>
   <v>       0.01666667 </v>
   <v>       0.01666667 </v>
   <v>       0.01666667 </v>
   <v>       0.01666667 </v>
   <v>       0.01666667 </v>
   <v>       0.01666667 </v>
   <v>       0.01666667 </v>
   <v>       0.01666667 </v>
   <v>       0.01666667 </v>
   <v>       0.01666667 </v>
   <v>       0.01666667 </v>
   <v>       0.01666667 </v>
   <v>       0.01666667 </v>
   <v>       0.01666667 </v>
   <v>       0.01666667 </v>
   <v>       0.01666667 </v>
   <v>       0.01666667 </v>
   <v>       0.01666667 </v>
   <v>       0.01666667 </v>
   <v>       0.01666667 </v>
   <v>       0.01666667 </v>
   <v>       0.01666667 </v>
   <v>       0.01666667 </v>
   <v>       0.01666667 </v>
   <v>       0.01666667 </v>
   <v>       0.01666667 </v>
   <v>       0.01666667 </v>
   <v>       0.01666667 </v>
   <v>       0.01666667 </v>
   <v>       0.01666667 </v>
   <v>       0.01666667 </v>
   <v>       0.01666667 </v>
   <v>       0.01666667 </v>
   <v>       0.01666667 </v>
   <v>       0.01666667 </v>
   <v>       0.01666667 </v>
   <v>       0.01666667 </v>
   <v>       0.01666667 </v>
   <v>       0.01666667 </v>
   <v>       0.01666667 </v>
   <v>       0.01666667 </v>
   <v>       0.01666667 </v>
   <v>       0.01666667 </v>
   <v>       0.01666667 </v>
   <v>       0.01666667 </v>
   <v>       0.01666667 </v>
   <v>       0.01666667 </v>
  </varray>
 </kpoints>
 <parameters>
  <separator name="general" >
   <i type="string" name="SYSTEM">Simulation for cell shape cell volume r</i>
   <i type="logical" name="LCOMPAT"> F  </i>
  </separator>
  <separator name="electronic" >
   <i type="string" name="PREC">high</i>
   <i name="ENMAX">    500.00000000</i>
   <i name="ENAUG">    644.87300000</i>
   <i name="EDIFF">      0.00001000</i>
   <i type="int" name="IALGO">    38</i>
   <i type="int" name="IWAVPR">    10</i>
   <i type="int" name="NBANDS">   176</i>
   <i name="NELECT">    270.00000000</i>
   <i type="int" name="TURBO">     0</i>
   <i type="int" name="IRESTART">     0</i>
   <i type="int" name="NREBOOT">     0</i>
   <i type="int" name="NMIN">     0</i>
   <i name="EREF">      0.00000000</i>
   <separator name="electronic smearing" >
    <i type="int" name="ISMEAR">     0</i>
    <i name="SIGMA">      0.01000000</i>
    <i name="KSPACING">      0.50000000</i>
    <i type="logical" name="KGAMMA"> T  </i>
   </separator>
   <separator name="electronic projectors" >
    <i type="logical" name="LREAL"> T  </i>
    <v name="ROPT">     -0.00040000     -0.00040000     -0.00040000     -0.00040000</v>
    <i type="int" name="LMAXPAW">  -100</i>
    <i type="int" name="LMAXMIX">     2</i>
    <i type="logical" name="NLSPLINE"> F  </i>
   </separator>
   <separator name="electronic startup" >
    <i type="int" name="ISTART">     1</i>
    <i type="int" name="ICHARG">    11</i>
    <i type="int" name="INIWAV">     1</i>
   </separator>
   <separator name="electronic spin" >
    <i type="int" name="ISPIN">     1</i>
    <i type="logical" name="LNONCOLLINEAR"> F  </i>
    <v name="MAGMOM">      1.00000000      1.00000000      1.00000000      1.00000000      1.00000000      1.00000000      1.00000000      1.00000000      1.00000000      1.00000000      1.00000000      1.00000000      1.00000000      1.00000000      1.00000000      1.00000000      1.00000000      1.00000000      1.00000000      1.00000000
      1.00000000      1.00000000      1.00000000      1.00000000      1.00000000      1.00000000      1.00000000      1.00000000      1.00000000      1.00000000      1.00000000      1.00000000      1.00000000      1.00000000      1.00000000      1.00000000      1.00000000      1.00000000      1.00000000      1.00000000
      1.00000000      1.00000000      1.00000000      1.00000000      1.00000000      1.00000000      1.00000000      1.00000000      1.00000000      1.00000000      1.00000000      1.00000000      1.00000000      1.00000000      1.00000000      1.00000000      1.00000000      1.00000000      1.00000000      1.00000000
      1.00000000      1.00000000      1.00000000      1.00000000      1.00000000      1.00000000      1.00000000      1.00000000      1.00000000      1.00000000      1.00000000      1.00000000      1.00000000      1.00000000      1.00000000      1.00000000      1.00000000      1.00000000</v>
    <i name="NUPDOWN">     -1.00000000</i>
    <i type="logical" name="LSORBIT"> F  </i>
    <v name="SAXIS">      0.00000000      0.00000000      1.00000000</v>
    <i type="logical" name="LSPIRAL"> F  </i>
    <v name="QSPIRAL">      0.00000000      0.00000000      0.00000000</v>
    <i type="logical" name="LZEROZ"> F  </i>
   </separator>
   <separator name="electronic exchange-correlation" >
    <i type="logical" name="LASPH"> F  </i>
    <i type="logical" name="LMETAGGA"> F  </i>
   </separator>
   <separator name="electronic convergence" >
    <i type="int" name="NELM">   200</i>
    <i type="int" name="NELMDL">     0</i>
    <i type="int" name="NELMIN">     2</i>
    <i name="ENINI">    500.00000000</i>
    <separator name="electronic convergence detail" >
     <i type="logical" name="LDIAG"> T  </i>
     <i type="logical" name="LSUBROT"> F  </i>
     <i name="WEIMIN">      0.00000000</i>
     <i name="EBREAK">      0.00000001</i>
     <i name="DEPER">      0.30000000</i>
     <i type="int" name="NRMM">     4</i>
     <i name="TIME">      0.40000000</i>
    </separator>
   </separator>
   <separator name="electronic mixer" >
    <i name="AMIX">      0.40000000</i>
    <i name="BMIX">      1.00000000</i>
    <i name="AMIN">      0.10000000</i>
    <i name="AMIX_MAG">      1.60000000</i>
    <i name="BMIX_MAG">      1.00000000</i>
    <separator name="electronic mixer details" >
     <i type="int" name="IMIX">     4</i>
     <i type="logical" name="MIXFIRST"> F  </i>
     <i type="int" name="MAXMIX">   -45</i>
     <i name="WC">    100.00000000</i>
     <i type="int" name="INIMIX">     1</i>
     <i type="int" name="MIXPRE">     1</i>
     <i type="int" name="MREMOVE">     5</i>
    </separator>
   </separator>
   <separator name="electronic dipolcorrection" >
    <i type="logical" name="LDIPOL"> F  </i>
    <i type="logical" name="LMONO"> F  </i>
    <i type="int" name="IDIPOL">     0</i>
    <i name="EPSILON">      1.00000000</i>
    <v name="DIPOL">   -100.00000000   -100.00000000   -100.00000000</v>
    <i name="EFIELD">      0.00000000</i>
   </separator>
  </separator>
  <separator name="grids" >
   <i type="int" name="NGX">   162</i>
   <i type="int" name="NGY">   162</i>
   <i type="int" name="NGZ">   150</i>
   <i type="int" name="NGXF">   250</i>
   <i type="int" name="NGYF">   250</i>
   <i type="int" name="NGZF">   224</i>
   <i type="logical" name="ADDGRID"> F  </i>
  </separator>
  <separator name="ionic" >
   <i type="int" name="NSW">     0</i>
   <i type="int" name="IBRION">    -1</i>
   <i type="int" name="MDALGO">     0</i>
   <i type="int" name="ISIF">     2</i>
   <i name="PSTRESS">      0.00000000</i>
   <i name="EDIFFG">     -0.01000000</i>
   <i type="int" name="NFREE">     0</i>
   <i name="POTIM">      0.30000000</i>
   <i name="SMASS">     -3.00000000</i>
   <i name="SCALEE">      1.00000000</i>
  </separator>
  <separator name="ionic md" >
   <i name="TEBEG">      0.00010000</i>
   <i name="TEEND">      0.00010000</i>
   <i type="int" name="NBLOCK">     1</i>
   <i type="int" name="KBLOCK">     1</i>
   <i type="int" name="NPACO">   256</i>
   <i name="APACO">     16.00000000</i>
  </separator>
  <separator name="symmetry" >
   <i type="int" name="ISYM">     2</i>
   <i name="SYMPREC">      0.00001000</i>
  </separator>
  <separator name="dos" >
   <i type="int" name="LORBIT">     0</i>
   <v name="RWIGS">     -1.00000000     -1.00000000     -1.00000000     -1.00000000</v>
   <i type="int" name="NEDOS">   301</i>
   <i name="EMIN">     10.00000000</i>
   <i name="EMAX">    -10.00000000</i>
   <i name="EFERMI">      0.00000000</i>
  </separator>
  <separator name="writing" >
   <i type="int" name="NWRITE">     0</i>
   <i type="logical" name="LWAVE"> F  </i>
   <i type="logical" name="LDOWNSAMPLE"> F  </i>
   <i type="logical" name="LCHARG"> F  </i>
   <i type="logical" name="LPARD"> F  </i>
   <i type="logical" name="LVTOT"> F  </i>
   <i type="logical" name="LVHAR"> F  </i>
   <i type="logical" name="LELF"> F  </i>
   <i type="logical" name="LOPTICS"> F  </i>
   <v name="STM">      0.00000000      0.00000000      0.00000000      0.00000000      0.00000000      0.00000000      0.00000000</v>
  </separator>
  <separator name="performance" >
   <i type="int" name="NPAR">    16</i>
   <i type="int" name="NSIM">     4</i>
   <i type="int" name="NBLK">    -1</i>
   <i type="logical" name="LPLANE"> T  </i>
   <i type="logical" name="LSCALAPACK"> T  </i>
   <i type="logical" name="LSCAAWARE"> F  </i>
   <i type="logical" name="LSCALU"> F  </i>
   <i type="logical" name="LASYNC"> F  </i>
   <i type="logical" name="LORBITALREAL"> F  </i>
  </separator>
  <separator name="miscellaneous" >
   <i type="int" name="IDIOT">     3</i>
   <i type="int" name="ISPECIAL">     0</i>
   <i type="logical" name="LMUSIC"> F  </i>
   <v name="POMASS">     14.00100000      1.00000000     12.01100000     16.00000000</v>
   <v name="DARWINR">      0.00000000      0.00000000      0.00000000      0.00000000</v>
   <v name="DARWINV">      1.00000000      1.00000000      1.00000000      1.00000000</v>
   <i type="logical" name="LCORR"> T  </i>
  </separator>
  <i type="logical" name="GGA_COMPAT"> T  </i>
  <i type="logical" name="LBERRY"> F  </i>
  <i type="int" name="ICORELEVEL">     0</i>
  <i type="logical" name="LDAU"> F  </i>
  <i type="int" name="I_CONSTRAINED_M">     0</i>
  <separator name="electronic exchange-correlation" >
   <i type="string" name="GGA">PE</i>
   <i type="int" name="VOSKOWN">     0</i>
   <i type="logical" name="LHFCALC"> F  </i>
   <i type="string" name="PRECFOCK"></i>
   <i type="logical" name="LSYMGRAD"> F  </i>
   <i type="logical" name="LHFONE"> F  </i>
   <i type="logical" name="LRHFCALC"> F  </i>
   <i type="logical" name="LTHOMAS"> F  </i>
   <i type="logical" name="LMODELHF"> F  </i>
   <i name="ENCUT4O">     -1.00000000</i>
   <i type="int" name="EXXOEP">     0</i>
   <i type="int" name="FOURORBIT">     0</i>
   <i name="AEXX">      0.00000000</i>
   <i name="HFALPHA">      0.00000000</i>
   <i name="MCALPHA">      0.00000000</i>
   <i name="ALDAX">      1.00000000</i>
   <i name="AGGAX">      1.00000000</i>
   <i name="ALDAC">      1.00000000</i>
   <i name="AGGAC">      1.00000000</i>
   <i type="int" name="NKREDX">     1</i>
   <i type="int" name="NKREDY">     1</i>
   <i type="int" name="NKREDZ">     1</i>
   <i type="logical" name="SHIFTRED"> F  </i>
   <i type="logical" name="ODDONLY"> F  </i>
   <i type="logical" name="EVENONLY"> F  </i>
   <i type="int" name="LMAXFOCK">     0</i>
   <i type="int" name="NMAXFOCKAE">     0</i>
   <i type="logical" name="LFOCKAEDFT"> F  </i>
   <i name="HFSCREEN">      0.00000000</i>
   <i name="HFSCREENC">      0.00000000</i>
   <i type="int" name="NBANDSGWLOW">     0</i>
  </separator>
  <separator name="vdW DFT" >
   <i type="logical" name="LUSE_VDW"> F  </i>
   <i name="Zab_VDW">     -0.84910000</i>
   <i name="PARAM1">      0.12340000</i>
   <i name="PARAM2">      1.00000000</i>
   <i name="PARAM3">      0.00000000</i>
  </separator>
  <separator name="model GW" >
   <i type="int" name="MODEL_GW">     0</i>
   <i name="MODEL_EPS0">     65.21876001</i>
   <i name="MODEL_ALPHA">      1.00000000</i>
  </separator>
  <separator name="linear response parameters" >
   <i type="logical" name="LEPSILON"> F  </i>
   <i type="logical" name="LRPA"> F  </i>
   <i type="logical" name="LNABLA"> F  </i>
   <i type="logical" name="LVEL"> F  </i>
   <i type="int" name="KINTER">     0</i>
   <i name="CSHIFT">      0.10000000</i>
   <i name="OMEGAMAX">     -1.00000000</i>
   <i name="DEG_THRESHOLD">      0.00200000</i>
   <i name="RTIME">     -0.10000000</i>
   <i name="WPLASMAI">      0.00000000</i>
   <v name="DFIELD">      0.00000000      0.00000000      0.00000000</v>
   <v name="WPLASMA">      0.00000000      0.00000000      0.00000000      0.00000000      0.00000000      0.00000000      0.00000000      0.00000000      0.00000000</v>
  </separator>
  <separator name="orbital magnetization" >
   <i type="logical" name="NUCIND"> F  </i>
   <v name="MAGPOS">      0.00000000      0.00000000      0.00000000</v>
   <i type="logical" name="LNICSALL"> T  </i>
   <i type="logical" name="ORBITALMAG"> F  </i>
   <i type="logical" name="LMAGBLOCH"> F  </i>
   <i type="logical" name="LCHIMAG"> F  </i>
   <i type="logical" name="LGAUGE"> T  </i>
   <i type="int" name="MAGATOM">     0</i>
   <v name="MAGDIPOL">      0.00000000      0.00000000      0.00000000</v>
   <v name="AVECCONST">      0.00000000      0.00000000      0.00000000</v>
  </separator>
  <separator name="response functions" >
   <i type="logical" name="LADDER"> F  </i>
   <i type="logical" name="LRPAFORCE"> F  </i>
   <i type="logical" name="LFXC"> F  </i>
   <i type="logical" name="LHARTREE"> T  </i>
   <i type="int" name="IBSE">     0</i>
   <v type="int" name="KPOINT">    -1     0     0     0</v>
   <i type="logical" name="LTCTE"> F  </i>
   <i type="logical" name="LTETE"> F  </i>
   <i type="logical" name="LTRIPLET"> F  </i>
   <i type="logical" name="LFXCEPS"> F  </i>
   <i type="logical" name="LFXHEG"> F  </i>
   <i type="int" name="NATURALO">     2</i>
   <i type="logical" name="L2ORDER"> F  </i>
   <i type="logical" name="LMP2LT"> F  </i>
   <i type="logical" name="LUSEW"> F  </i>
   <i name="ENCUTGW">     -2.00000000</i>
   <i name="ENCUTGWSOFT">     -2.00000000</i>
   <i name="ENCUTLF">     -1.00000000</i>
   <i type="int" name="LMAXMP2">    -1</i>
   <i name="SCISSOR">      0.00000000</i>
   <i type="int" name="NOMEGA">     0</i>
   <i type="int" name="NOMEGAR">     0</i>
   <i type="int" name="NBANDSGW">    -1</i>
   <i type="int" name="NBANDSO">    -1</i>
   <i type="int" name="NBANDSV">    -1</i>
   <i type="int" name="NELM">   200</i>
   <i type="int" name="NELMHF">     1</i>
   <i type="int" name="DIM">     3</i>
   <i type="int" name="ANTIRES">     0</i>
   <i name="OMEGAMAX">    -30.00000000</i>
   <i name="OMEGAMIN">    -30.00000000</i>
   <i name="OMEGATL">   -200.00000000</i>
   <i type="int" name="OMEGAGRID">   140</i>
   <i name="CSHIFT">     -0.10000000</i>
   <i type="logical" name="SELFENERGY"> F  </i>
   <i type="logical" name="LSPECTRAL"> F  </i>
   <i type="logical" name="LSPECTRALGW"> F  </i>
   <i type="logical" name="LSINGLES"> F  </i>
   <i type="logical" name="LFERMIGW"> F  </i>
   <i type="logical" name="ODDONLYGW"> F  </i>
   <i type="logical" name="EVENONLYGW"> F  </i>
   <i type="int" name="NKREDLFX">     1</i>
   <i type="int" name="NKREDLFY">     1</i>
   <i type="int" name="NKREDLFZ">     1</i>
   <i type="int" name="MAXMEM">  2800</i>
   <i type="int" name="TELESCOPE">     0</i>
   <i type="int" name="TAUPAR">     1</i>
   <i type="int" name="OMEGAPAR">    -1</i>
   <i name="LAMBDA">      1.00000000</i>
  </separator>
  <separator name="External order field" >
   <i name="OFIELD_KAPPA">      0.00000000</i>
   <v name="OFIELD_K">      0.00000000      0.00000000      0.00000000</v>
   <i name="OFIELD_Q6_NEAR">      0.00000000</i>
   <i name="OFIELD_Q6_FAR">      0.00000000</i>
   <i name="OFIELD_A">      0.00000000</i>
  </separator>
  <separator name="solvation model" >
   <i type="logical" name="LSOL"> F  </i>
  </separator>
 </parameters>
 <atominfo>
  <atoms>      78 </atoms>
  <types>       4 </types>
  <array name="atoms" >
   <dimension dim="1">ion</dimension>
   <field type="string">element</field>
   <field type="int">atomtype</field>
   <set>
    <rc><c>N </c><c>   1</c></rc>
    <rc><c>N </c><c>   1</c></rc>
    <rc><c>N </c><c>   1</c></rc>
    <rc><c>N </c><c>   1</c></rc>
    <rc><c>N </c><c>   1</c></rc>
    <rc><c>N </c><c>   1</c></rc>
    <rc><c>N </c><c>   1</c></rc>
    <rc><c>N </c><c>   1</c></rc>
    <rc><c>N </c><c>   1</c></rc>
    <rc><c>N </c><c>   1</c></rc>
    <rc><c>N </c><c>   1</c></rc>
    <rc><c>N </c><c>   1</c></rc>
    <rc><c>H </c><c>   2</c></rc>
    <rc><c>H </c><c>   2</c></rc>
    <rc><c>H </c><c>   2</c></rc>
    <rc><c>H </c><c>   2</c></rc>
    <rc><c>H </c><c>   2</c></rc>
    <rc><c>H </c><c>   2</c></rc>
    <rc><c>H </c><c>   2</c></rc>
    <rc><c>H </c><c>   2</c></rc>
    <rc><c>H </c><c>   2</c></rc>
    <rc><c>H </c><c>   2</c></rc>
    <rc><c>H </c><c>   2</c></rc>
    <rc><c>H </c><c>   2</c></rc>
    <rc><c>H </c><c>   2</c></rc>
    <rc><c>H </c><c>   2</c></rc>
    <rc><c>H </c><c>   2</c></rc>
    <rc><c>H </c><c>   2</c></rc>
    <rc><c>H </c><c>   2</c></rc>
    <rc><c>H </c><c>   2</c></rc>
    <rc><c>H </c><c>   2</c></rc>
    <rc><c>H </c><c>   2</c></rc>
    <rc><c>H </c><c>   2</c></rc>
    <rc><c>H </c><c>   2</c></rc>
    <rc><c>H </c><c>   2</c></rc>
    <rc><c>H </c><c>   2</c></rc>
    <rc><c>C </c><c>   3</c></rc>
    <rc><c>C </c><c>   3</c></rc>
    <rc><c>C </c><c>   3</c></rc>
    <rc><c>C </c><c>   3</c></rc>
    <rc><c>C </c><c>   3</c></rc>
    <rc><c>C </c><c>   3</c></rc>
    <rc><c>C </c><c>   3</c></rc>
    <rc><c>C </c><c>   3</c></rc>
    <rc><c>C </c><c>   3</c></rc>
    <rc><c>C </c><c>   3</c></rc>
    <rc><c>C </c><c>   3</c></rc>
    <rc><c>C </c><c>   3</c></rc>
    <rc><c>C </c><c>   3</c></rc>
    <rc><c>C </c><c>   3</c></rc>
    <rc><c>C </c><c>   3</c></rc>
    <rc><c>C </c><c>   3</c></rc>
    <rc><c>C </c><c>   3</c></rc>
    <rc><c>C </c><c>   3</c></rc>
    <rc><c>C </c><c>   3</c></rc>
    <rc><c>C </c><c>   3</c></rc>
    <rc><c>C </c><c>   3</c></rc>
    <rc><c>C </c><c>   3</c></rc>
    <rc><c>C </c><c>   3</c></rc>
    <rc><c>C </c><c>   3</c></rc>
    <rc><c>C </c><c>   3</c></rc>
    <rc><c>C </c><c>   3</c></rc>
    <rc><c>C </c><c>   3</c></rc>
    <rc><c>C </c><c>   3</c></rc>
    <rc><c>C </c><c>   3</c></rc>
    <rc><c>C </c><c>   3</c></rc>
    <rc><c>C </c><c>   3</c></rc>
    <rc><c>C </c><c>   3</c></rc>
    <rc><c>C </c><c>   3</c></rc>
    <rc><c>O </c><c>   4</c></rc>
    <rc><c>O </c><c>   4</c></rc>
    <rc><c>O </c><c>   4</c></rc>
    <rc><c>O </c><c>   4</c></rc>
    <rc><c>O </c><c>   4</c></rc>
    <rc><c>O </c><c>   4</c></rc>
    <rc><c>O </c><c>   4</c></rc>
    <rc><c>O </c><c>   4</c></rc>
    <rc><c>O </c><c>   4</c></rc>
   </set>
  </array>
  <array name="atomtypes" >
   <dimension dim="1">type</dimension>
   <field type="int">atomspertype</field>
   <field type="string">element</field>
   <field>mass</field>
   <field>valence</field>
   <field type="string">pseudopotential</field>
   <set>
    <rc><c>  12</c><c>N </c><c>     14.00100000</c><c>      5.00000000</c><c>  PAW_PBE N 08Apr2002                   </c></rc>
    <rc><c>  24</c><c>H </c><c>      1.00000000</c><c>      1.00000000</c><c>  PAW_PBE H 15Jun2001                   </c></rc>
    <rc><c>  33</c><c>C </c><c>     12.01100000</c><c>      4.00000000</c><c>  PAW_PBE C 08Apr2002                   </c></rc>
    <rc><c>   9</c><c>O </c><c>     16.00000000</c><c>      6.00000000</c><c>  PAW_PBE O 08Apr2002                   </c></rc>
   </set>
  </array>
 </atominfo>
 <structure name="initialpos" >
  <crystal>
   <varray name="basis" >
    <v>      22.14274415       0.00943513       0.00000000 </v>
    <v>     -11.06305377      19.14024548       0.00000000 </v>
    <v>       0.00000000       0.00000000      20.00000000 </v>
   </varray>
   <i name="volume">   8478.43880142 </i>
   <varray name="rec_basis" >
    <v>       0.04515040       0.02609691       0.00000000 </v>
    <v>      -0.00002226       0.05223307       0.00000000 </v>
    <v>       0.00000000       0.00000000       0.05000000 </v>
   </varray>
  </crystal>
  <varray name="positions" >
   <v>       0.43496816       0.47422569       0.52860419 </v>
   <v>       0.57410198       0.43373250       0.55277285 </v>
   <v>       0.03751647       0.55681379       0.51994098 </v>
   <v>       0.85783665       0.41849211       0.54557311 </v>
   <v>       0.51831377       0.95467395       0.52656398 </v>
   <v>       0.55877363       0.13434586       0.55179882 </v>
   <v>       0.58082531       0.54093657       0.52426415 </v>
   <v>       0.44122616       0.58050631       0.49736901 </v>
   <v>       0.95686713       0.41108466       0.51291708 </v>
   <v>       0.13677503       0.54998410       0.48762606 </v>
   <v>       0.45122723       0.03362359       0.52485666 </v>
   <v>       0.41156415       0.85415107       0.49772250 </v>
   <v>       0.54011425       0.30180720       0.54013492 </v>
   <v>       0.75950099       0.45211634       0.53525036 </v>
   <v>       0.69016688       0.23234250       0.53585828 </v>
   <v>       0.45794921       0.70696679       0.47508784 </v>
   <v>       0.24774549       0.53394849       0.47106077 </v>
   <v>       0.28544770       0.74475935       0.46995951 </v>
   <v>       0.36877301       0.35047333       0.56214282 </v>
   <v>       0.42459550       0.33099728       0.51393274 </v>
   <v>       0.43951293       0.35989710       0.65319329 </v>
   <v>       0.54205643       0.38763059       0.57651255 </v>
   <v>       0.98175445       0.62393228       0.55544098 </v>
   <v>       0.90570256       0.56899637       0.50772908 </v>
   <v>       0.92088436       0.55268695       0.64645660 </v>
   <v>       0.84478614       0.45109907       0.56972004 </v>
   <v>       0.64283343       0.01263348       0.55626417 </v>
   <v>       0.66046315       0.08757444       0.50818191 </v>
   <v>       0.63619799       0.07483205       0.64825836 </v>
   <v>       0.60563026       0.14839208       0.57385814 </v>
   <v>       0.57865321       0.62988121       0.49597349 </v>
   <v>       0.47272979       0.63300254       0.50088242 </v>
   <v>       0.04669515       0.41268350       0.48148866 </v>
   <v>       0.15701922       0.51780282       0.49011558 </v>
   <v>       0.36195441       0.94224828       0.49789456 </v>
   <v>       0.35918166       0.83315312       0.50186416 </v>
   <v>       0.73244205       0.34249420       0.53890107 </v>
   <v>       0.67674478       0.27346007       0.53992360 </v>
   <v>       0.60789941       0.25954155       0.54162951 </v>
   <v>       0.59470896       0.31532898       0.54227775 </v>
   <v>       0.71855237       0.39753639       0.53951036 </v>
   <v>       0.80422809       0.35220468       0.52890385 </v>
   <v>       0.54544152       0.18737017       0.53451266 </v>
   <v>       0.25842828       0.63834756       0.47153811 </v>
   <v>       0.30715772       0.70999065       0.47211883 </v>
   <v>       0.37861573       0.73372286       0.47446477 </v>
   <v>       0.40145285       0.68498620       0.47496810 </v>
   <v>       0.28221460       0.59053103       0.47240383 </v>
   <v>       0.18277207       0.61924599       0.47230577 </v>
   <v>       0.43501799       0.80937036       0.47823464 </v>
   <v>       0.54224628       0.47306978       0.53923295 </v>
   <v>       0.46818842       0.43915749       0.54135698 </v>
   <v>       0.42292132       0.36207950       0.55622266 </v>
   <v>       0.92858386       0.44990778       0.53037406 </v>
   <v>       0.96943727       0.52403984       0.53325901 </v>
   <v>       0.93869217       0.56994739       0.54943098 </v>
   <v>       0.51932825       0.06311132       0.53832228 </v>
   <v>       0.55350147       0.02310177       0.53884803 </v>
   <v>       0.63094907       0.05514844       0.55123913 </v>
   <v>       0.64965976       0.38428091       0.54120671 </v>
   <v>       0.63958604       0.44642385       0.53325116 </v>
   <v>       0.35370601       0.61337798       0.47460852 </v>
   <v>       0.37290618       0.55692655       0.47834743 </v>
   <v>       0.54684747       0.57459502       0.50935073 </v>
   <v>       0.47367355       0.54143829       0.51129717 </v>
   <v>       0.02426057       0.44475248       0.49720617 </v>
   <v>       0.06521374       0.51787547       0.50104940 </v>
   <v>       0.41741508       0.96583633       0.51028156 </v>
   <v>       0.45070870       0.92585778       0.51109762 </v>
   <v>       0.68553676       0.50153442       0.50937528 </v>
   <v>       0.81227279       0.30515416       0.50607211 </v>
   <v>       0.48957778       0.17851373       0.51320920 </v>
   <v>       0.32988421       0.49552328       0.46673855 </v>
   <v>       0.16530708       0.66313373       0.46177876 </v>
   <v>       0.49628183       0.82763111       0.46649873 </v>
   <v>       0.44620584       0.33890323       0.61312676 </v>
   <v>       0.89290950       0.54671520       0.60679407 </v>
   <v>       0.65597577       0.10214215       0.60774203 </v>
  </varray>
 </structure>
 <calculation>
  <scstep>
   <time name="dav">  227.09  229.47</time>
   <time name="total">  227.23  229.62</time>
   <energy>
    <i name="alphaZ">     38.31650291 </i>
    <i name="ewald">  30808.05637737 </i>
    <i name="hartreedc"> -40966.06447620 </i>
    <i name="XCdc">   1021.25141966 </i>
    <i name="pawpsdc">  25057.17424270 </i>
    <i name="pawaedc"> -25115.32199242 </i>
    <i name="eentropy">     -0.00000000 </i>
    <i name="bandstr">  -3608.11548120 </i>
    <i name="atom">  12221.19833713 </i>
    <i name="e_fr_energy">   -543.50507004 </i>
    <i name="e_wo_entrp">   -543.50507004 </i>
    <i name="e_0_energy">   -543.50507004 </i>
   </energy>
  </scstep>
  <scstep>
   <time name="dav">  256.87  259.53</time>
   <time name="total">  256.87  259.53</time>
   <energy>
    <i name="e_fr_energy">   -544.22259582 </i>
    <i name="e_wo_entrp">   -544.22259582 </i>
    <i name="e_0_energy">   -544.22259582 </i>
   </energy>
  </scstep>
  <scstep>
   <time name="dav">  281.45  284.38</time>
   <time name="total">  281.45  284.38</time>
   <energy>
    <i name="e_fr_energy">   -544.24101011 </i>
    <i name="e_wo_entrp">   -544.24101011 </i>
    <i name="e_0_energy">   -544.24101011 </i>
   </energy>
  </scstep>
  <scstep>
   <time name="dav">  254.14  256.84</time>
   <time name="total">  254.15  256.84</time>
   <energy>
    <i name="e_fr_energy">   -544.24137408 </i>
    <i name="e_wo_entrp">   -544.24137408 </i>
    <i name="e_0_energy">   -544.24137408 </i>
   </energy>
  </scstep>
  <scstep>
   <time name="dav">  239.36  242.03</time>
   <time name="total">  239.37  242.03</time>
   <energy>
    <i name="e_fr_energy">   -544.24139073 </i>
    <i name="e_wo_entrp">   -544.24139073 </i>
    <i name="e_0_energy">   -544.24139073 </i>
   </energy>
  </scstep>
  <scstep>
   <time name="dav">  196.02  198.14</time>
   <time name="total">  196.02  198.14</time>
   <energy>
    <i name="alphaZ">     38.31650291 </i>
    <i name="ewald">  30808.05637737 </i>
    <i name="hartreedc"> -40966.06447620 </i>
    <i name="XCdc">   1021.25141966 </i>
    <i name="pawpsdc">  25057.17424270 </i>
    <i name="pawaedc"> -25115.32199242 </i>
    <i name="eentropy">     -0.00000000 </i>
    <i name="bandstr">  -3608.85180267 </i>
    <i name="atom">  12221.19833713 </i>
    <i name="e_fr_energy">   -544.24139152 </i>
    <i name="e_wo_entrp">   -544.24139152 </i>
    <i name="e_0_energy">   -544.24139152 </i>
   </energy>
  </scstep>
  <structure>
   <crystal>
    <varray name="basis" >
     <v>      22.14274415       0.00943513       0.00000000 </v>
     <v>     -11.06305377      19.14024548       0.00000000 </v>
     <v>       0.00000000       0.00000000      20.00000000 </v>
    </varray>
    <i name="volume">   8478.43880142 </i>
    <varray name="rec_basis" >
     <v>       0.04515040       0.02609691       0.00000000 </v>
     <v>      -0.00002226       0.05223307       0.00000000 </v>
     <v>       0.00000000       0.00000000       0.05000000 </v>
    </varray>
   </crystal>
   <varray name="positions" >
    <v>       0.43496816       0.47422569       0.52860419 </v>
    <v>       0.57410198       0.43373250       0.55277285 </v>
    <v>       0.03751647       0.55681379       0.51994098 </v>
    <v>       0.85783665       0.41849211       0.54557311 </v>
    <v>       0.51831377       0.95467395       0.52656398 </v>
    <v>       0.55877363       0.13434586       0.55179882 </v>
    <v>       0.58082531       0.54093657       0.52426415 </v>
    <v>       0.44122616       0.58050631       0.49736901 </v>
    <v>       0.95686713       0.41108466       0.51291708 </v>
    <v>       0.13677503       0.54998410       0.48762606 </v>
    <v>       0.45122723       0.03362359       0.52485666 </v>
    <v>       0.41156415       0.85415107       0.49772250 </v>
    <v>       0.54011425       0.30180720       0.54013492 </v>
    <v>       0.75950099       0.45211634       0.53525036 </v>
    <v>       0.69016688       0.23234250       0.53585828 </v>
    <v>       0.45794921       0.70696679       0.47508784 </v>
    <v>       0.24774549       0.53394849       0.47106077 </v>
    <v>       0.28544770       0.74475935       0.46995951 </v>
    <v>       0.36877301       0.35047333       0.56214282 </v>
    <v>       0.42459550       0.33099728       0.51393274 </v>
    <v>       0.43951293       0.35989710       0.65319329 </v>
    <v>       0.54205643       0.38763059       0.57651255 </v>
    <v>       0.98175445       0.62393228       0.55544098 </v>
    <v>       0.90570256       0.56899637       0.50772908 </v>
    <v>       0.92088436       0.55268695       0.64645660 </v>
    <v>       0.84478614       0.45109907       0.56972004 </v>
    <v>       0.64283343       0.01263348       0.55626417 </v>
    <v>       0.66046315       0.08757444       0.50818191 </v>
    <v>       0.63619799       0.07483205       0.64825836 </v>
    <v>       0.60563026       0.14839208       0.57385814 </v>
    <v>       0.57865321       0.62988121       0.49597349 </v>
    <v>       0.47272979       0.63300254       0.50088242 </v>
    <v>       0.04669515       0.41268350       0.48148866 </v>
    <v>       0.15701922       0.51780282       0.49011558 </v>
    <v>       0.36195441       0.94224828       0.49789456 </v>
    <v>       0.35918166       0.83315312       0.50186416 </v>
    <v>       0.73244205       0.34249420       0.53890107 </v>
    <v>       0.67674478       0.27346007       0.53992360 </v>
    <v>       0.60789941       0.25954155       0.54162951 </v>
    <v>       0.59470896       0.31532898       0.54227775 </v>
    <v>       0.71855237       0.39753639       0.53951036 </v>
    <v>       0.80422809       0.35220468       0.52890385 </v>
    <v>       0.54544152       0.18737017       0.53451266 </v>
    <v>       0.25842828       0.63834756       0.47153811 </v>
    <v>       0.30715772       0.70999065       0.47211883 </v>
    <v>       0.37861573       0.73372286       0.47446477 </v>
    <v>       0.40145285       0.68498620       0.47496810 </v>
    <v>       0.28221460       0.59053103       0.47240383 </v>
    <v>       0.18277207       0.61924599       0.47230577 </v>
    <v>       0.43501799       0.80937036       0.47823464 </v>
    <v>       0.54224628       0.47306978       0.53923295 </v>
    <v>       0.46818842       0.43915749       0.54135698 </v>
    <v>       0.42292132       0.36207950       0.55622266 </v>
    <v>       0.92858386       0.44990778       0.53037406 </v>
    <v>       0.96943727       0.52403984       0.53325901 </v>
    <v>       0.93869217       0.56994739       0.54943098 </v>
    <v>       0.51932825       0.06311132       0.53832228 </v>
    <v>       0.55350147       0.02310177       0.53884803 </v>
    <v>       0.63094907       0.05514844       0.55123913 </v>
    <v>       0.64965976       0.38428091       0.54120671 </v>
    <v>       0.63958604       0.44642385       0.53325116 </v>
    <v>       0.35370601       0.61337798       0.47460852 </v>
    <v>       0.37290618       0.55692655       0.47834743 </v>
    <v>       0.54684747       0.57459502       0.50935073 </v>
    <v>       0.47367355       0.54143829       0.51129717 </v>
    <v>       0.02426057       0.44475248       0.49720617 </v>
    <v>       0.06521374       0.51787547       0.50104940 </v>
    <v>       0.41741508       0.96583633       0.51028156 </v>
    <v>       0.45070870       0.92585778       0.51109762 </v>
    <v>       0.68553676       0.50153442       0.50937528 </v>
    <v>       0.81227279       0.30515416       0.50607211 </v>
    <v>       0.48957778       0.17851373       0.51320920 </v>
    <v>       0.32988421       0.49552328       0.46673855 </v>
    <v>       0.16530708       0.66313373       0.46177876 </v>
    <v>       0.49628183       0.82763111       0.46649873 </v>
    <v>       0.44620584       0.33890323       0.61312676 </v>
    <v>       0.89290950       0.54671520       0.60679407 </v>
    <v>       0.65597577       0.10214215       0.60774203 </v>
   </varray>
  </structure>
  <varray name="forces" >
   <v>       0.00056881       0.00069838      -0.00412587 </v>
   <v>       0.00734920      -0.00044017      -0.00239806 </v>
   <v>      -0.00424744       0.00233810      -0.00086656 </v>
   <v>      -0.00534472       0.00109126      -0.00226953 </v>
   <v>       0.00418005       0.00156828       0.00383759 </v>
   <v>      -0.00341353       0.00511933      -0.00421645 </v>
   <v>      -0.00008687       0.00007440      -0.00059653 </v>
   <v>      -0.00333253      -0.00021032      -0.00270946 </v>
   <v>       0.00109930       0.00158262       0.00383383 </v>
   <v>       0.00099485      -0.00829145       0.00653942 </v>
   <v>      -0.00645310      -0.00414383       0.00267489 </v>
   <v>       0.00185109       0.00108685      -0.00366737 </v>
   <v>      -0.00169100      -0.00038379      -0.00190027 </v>
   <v>       0.00064980      -0.00113160      -0.00189859 </v>
   <v>      -0.00277394       0.00250147       0.00125049 </v>
   <v>       0.00229957      -0.00028522       0.00254969 </v>
   <v>      -0.00183668      -0.00223691      -0.00187676 </v>
   <v>      -0.00111310       0.00197546       0.00166763 </v>
   <v>      -0.00242642      -0.00108844      -0.00200089 </v>
   <v>       0.00066097       0.00110489       0.00080537 </v>
   <v>      -0.00177885       0.00188806      -0.00068073 </v>
   <v>      -0.00047374      -0.00267729       0.00003471 </v>
   <v>       0.00185476       0.00419446      -0.00355100 </v>
   <v>       0.00174887      -0.00068452      -0.00239838 </v>
   <v>      -0.00168532       0.00247455      -0.00721957 </v>
   <v>      -0.00303773       0.00390199       0.00308932 </v>
   <v>       0.00107591       0.00038562      -0.00209065 </v>
   <v>       0.00113576       0.00316623      -0.00091857 </v>
   <v>       0.00461463      -0.00281154      -0.00401687 </v>
   <v>       0.00047014       0.00175741      -0.00030018 </v>
   <v>      -0.00011033       0.00379081      -0.00402027 </v>
   <v>       0.00247157      -0.00210436      -0.00104614 </v>
   <v>       0.00738283      -0.00008138       0.00403855 </v>
   <v>       0.00159219      -0.00160403       0.00049319 </v>
   <v>       0.00109473       0.00152393       0.00453683 </v>
   <v>       0.00255419      -0.00342748       0.00158185 </v>
   <v>       0.00214444      -0.00865355      -0.00164051 </v>
   <v>       0.00175483       0.00330849      -0.00097334 </v>
   <v>      -0.00489553       0.00033510      -0.00131618 </v>
   <v>       0.00215545      -0.00067411      -0.00059714 </v>
   <v>       0.00162776       0.00568081       0.00033806 </v>
   <v>       0.00303748      -0.00210055      -0.00048964 </v>
   <v>       0.00914488      -0.00276518      -0.00076028 </v>
   <v>      -0.00021982      -0.00376321       0.00047098 </v>
   <v>       0.00381779      -0.00053798       0.00070181 </v>
   <v>      -0.00345261      -0.00000084       0.00027418 </v>
   <v>      -0.00714946       0.00006462       0.00244425 </v>
   <v>      -0.00079432       0.00478806       0.00274717 </v>
   <v>       0.00276227      -0.00541411       0.00105650 </v>
   <v>      -0.00181534       0.00066964       0.00067875 </v>
   <v>      -0.00371779      -0.00043811       0.00591598 </v>
   <v>      -0.00340324      -0.00227844      -0.00110015 </v>
   <v>       0.00483444      -0.00376524       0.00097704 </v>
   <v>      -0.00426719       0.00007434       0.00122269 </v>
   <v>      -0.00475608      -0.00058751      -0.00288727 </v>
   <v>      -0.00332595       0.00600265       0.00116618 </v>
   <v>       0.00324010       0.00280795       0.00638016 </v>
   <v>      -0.00415501      -0.00529252      -0.00201369 </v>
   <v>       0.00051091      -0.00215613       0.00452309 </v>
   <v>       0.00465565       0.00409059      -0.00247261 </v>
   <v>      -0.00256328       0.00286725       0.00150593 </v>
   <v>      -0.00020644       0.00082531      -0.00032766 </v>
   <v>       0.00488285      -0.00454717       0.00003998 </v>
   <v>      -0.00070015      -0.00093078       0.00956981 </v>
   <v>      -0.00016309      -0.00264458      -0.00215283 </v>
   <v>      -0.00086629      -0.00344612       0.00258076 </v>
   <v>      -0.00103886       0.00626583       0.00372119 </v>
   <v>       0.00105251      -0.00037910      -0.00237156 </v>
   <v>       0.00216963       0.00212171      -0.00207573 </v>
   <v>       0.00007640      -0.00448109       0.00222283 </v>
   <v>       0.00067955      -0.00104330      -0.00367483 </v>
   <v>       0.00080649       0.00170159       0.00241409 </v>
   <v>      -0.00216980      -0.00099269       0.00329849 </v>
   <v>      -0.00225986       0.00658796      -0.00440298 </v>
   <v>      -0.00003975       0.00310106       0.00199963 </v>
   <v>       0.00257961      -0.00272686      -0.00248711 </v>
   <v>      -0.00537539      -0.00137687       0.00107658 </v>
   <v>      -0.00044169      -0.00091869      -0.00774730 </v>
  </varray>
  <varray name="stress" >
   <v>       0.18292200      -0.03164634      -0.00091604 </v>
   <v>      -0.03164634       0.22129711       0.00044014 </v>
   <v>      -0.00091603       0.00044014      -0.26989304 </v>
  </varray>
  <energy>
   <i name="e_fr_energy">   -545.85863844 </i>
   <i name="e_wo_entrp">   -545.85863844 </i>
   <i name="e_0_energy">     -0.00000000 </i>
  </energy>
  <time name="totalsc"> 1727.10 1746.46</time>
  <eigenvalues>
   <array>
    <dimension dim="1">band</dimension>
    <dimension dim="2">kpoint</dimension>
    <dimension dim="3">spin</dimension>
    <field>eigene</field>
    <field>occ</field>
    <set>
     <set comment="spin 1">
      <set comment="kpoint 1">
       <r>  -26.0760    1.0000 </r>
       <r>  -26.0612    1.0000 </r>
       <r>  -26.0595    1.0000 </r>
       <r>  -25.9407    1.0000 </r>
       <r>  -25.9373    1.0000 </r>
       <r>  -25.9325    1.0000 </r>
       <r>  -25.7536    1.0000 </r>
       <r>  -25.7428    1.0000 </r>
       <r>  -25.7412    1.0000 </r>
       <r>  -24.8164    1.0000 </r>
       <r>  -24.8156    1.0000 </r>
       <r>  -24.8143    1.0000 </r>
       <r>  -23.7940    1.0000 </r>
       <r>  -23.7915    1.0000 </r>
       <r>  -23.7877    1.0000 </r>
       <r>  -22.9926    1.0000 </r>
       <r>  -22.9808    1.0000 </r>
       <r>  -22.9792    1.0000 </r>
       <r>  -22.3899    1.0000 </r>
       <r>  -22.3686    1.0000 </r>
       <r>  -22.3663    1.0000 </r>
       <r>  -21.8958    1.0000 </r>
       <r>  -21.5500    1.0000 </r>
       <r>  -19.7776    1.0000 </r>
       <r>  -19.7765    1.0000 </r>
       <r>  -19.3265    1.0000 </r>
       <r>  -19.2929    1.0000 </r>
       <r>  -19.2913    1.0000 </r>
       <r>  -18.7769    1.0000 </r>
       <r>  -18.7742    1.0000 </r>
       <r>  -17.7025    1.0000 </r>
       <r>  -17.6701    1.0000 </r>
       <r>  -17.6691    1.0000 </r>
       <r>  -17.2864    1.0000 </r>
       <r>  -17.1453    1.0000 </r>
       <r>  -17.1423    1.0000 </r>
       <r>  -16.1896    1.0000 </r>
       <r>  -16.1860    1.0000 </r>
       <r>  -15.9984    1.0000 </r>
       <r>  -15.7672    1.0000 </r>
       <r>  -15.7643    1.0000 </r>
       <r>  -15.5193    1.0000 </r>
       <r>  -15.3790    1.0000 </r>
       <r>  -15.3748    1.0000 </r>
       <r>  -14.8701    1.0000 </r>
       <r>  -14.8657    1.0000 </r>
       <r>  -14.6074    1.0000 </r>
       <r>  -14.4691    1.0000 </r>
       <r>  -13.8467    1.0000 </r>
       <r>  -13.8401    1.0000 </r>
       <r>  -13.8385    1.0000 </r>
       <r>  -13.5819    1.0000 </r>
       <r>  -13.5786    1.0000 </r>
       <r>  -13.5324    1.0000 </r>
       <r>  -13.5279    1.0000 </r>
       <r>  -13.2300    1.0000 </r>
       <r>  -12.9038    1.0000 </r>
       <r>  -12.6342    1.0000 </r>
       <r>  -12.4676    1.0000 </r>
       <r>  -12.4593    1.0000 </r>
       <r>  -12.2937    1.0000 </r>
       <r>  -12.1672    1.0000 </r>
       <r>  -12.1651    1.0000 </r>
       <r>  -12.0022    1.0000 </r>
       <r>  -11.7558    1.0000 </r>
       <r>  -11.5064    1.0000 </r>
       <r>  -11.4958    1.0000 </r>
       <r>  -11.4191    1.0000 </r>
       <r>  -11.3980    1.0000 </r>
       <r>  -11.3594    1.0000 </r>
       <r>  -11.3570    1.0000 </r>
       <r>  -11.2430    1.0000 </r>
       <r>  -11.1664    1.0000 </r>
       <r>  -11.1644    1.0000 </r>
       <r>  -10.8743    1.0000 </r>
       <r>  -10.7877    1.0000 </r>
       <r>  -10.7817    1.0000 </r>
       <r>  -10.7701    1.0000 </r>
       <r>  -10.7134    1.0000 </r>
       <r>  -10.7065    1.0000 </r>
       <r>  -10.6396    1.0000 </r>
       <r>  -10.5746    1.0000 </r>
       <r>  -10.5702    1.0000 </r>
       <r>  -10.3516    1.0000 </r>
       <r>  -10.3404    1.0000 </r>
       <r>  -10.2927    1.0000 </r>
       <r>  -10.0645    1.0000 </r>
       <r>  -10.0625    1.0000 </r>
       <r>  -10.0358    1.0000 </r>
       <r>   -9.8943    1.0000 </r>
       <r>   -9.7581    1.0000 </r>
       <r>   -9.7529    1.0000 </r>
       <r>   -9.6544    1.0000 </r>
       <r>   -9.6397    1.0000 </r>
       <r>   -9.6381    1.0000 </r>
       <r>   -9.2539    1.0000 </r>
       <r>   -9.0033    1.0000 </r>
       <r>   -8.9967    1.0000 </r>
       <r>   -8.7446    1.0000 </r>
       <r>   -8.6885    1.0000 </r>
       <r>   -8.6867    1.0000 </r>
       <r>   -8.4621    1.0000 </r>
       <r>   -8.4582    1.0000 </r>
       <r>   -8.4274    1.0000 </r>
       <r>   -8.4023    1.0000 </r>
       <r>   -8.3944    1.0000 </r>
       <r>   -8.1492    1.0000 </r>
       <r>   -7.6841    1.0000 </r>
       <r>   -7.6808    1.0000 </r>
       <r>   -7.6441    1.0000 </r>
       <r>   -7.0969    1.0000 </r>
       <r>   -7.0931    1.0000 </r>
       <r>   -7.0794    1.0000 </r>
       <r>   -6.9588    1.0000 </r>
       <r>   -6.9559    1.0000 </r>
       <r>   -6.9355    1.0000 </r>
       <r>   -6.9120    1.0000 </r>
       <r>   -6.9103    1.0000 </r>
       <r>   -6.8838    1.0000 </r>
       <r>   -6.7774    1.0000 </r>
       <r>   -6.7689    1.0000 </r>
       <r>   -6.5065    1.0000 </r>
       <r>   -6.5031    1.0000 </r>
       <r>   -6.3256    1.0000 </r>
       <r>   -6.2043    1.0000 </r>
       <r>   -6.2020    1.0000 </r>
       <r>   -5.8311    1.0000 </r>
       <r>   -5.6591    1.0000 </r>
       <r>   -5.6513    1.0000 </r>
       <r>   -5.3564    1.0000 </r>
       <r>   -5.3128    1.0000 </r>
       <r>   -5.3079    1.0000 </r>
       <r>   -5.2466    1.0000 </r>
       <r>   -5.1143    1.0000 </r>
       <r>   -5.1097    1.0000 </r>
       <r>   -2.6760    0.0000 </r>
       <r>   -2.6643    0.0000 </r>
       <r>   -2.2543    0.0000 </r>
       <r>   -2.2480    0.0000 </r>
       <r>   -2.2427    0.0000 </r>
       <r>   -2.1565    0.0000 </r>
       <r>   -2.1535    0.0000 </r>
       <r>   -1.9266    0.0000 </r>
       <r>   -1.2121    0.0000 </r>
       <r>   -1.2051    0.0000 </r>
       <r>   -1.0611    0.0000 </r>
       <r>   -0.6707    0.0000 </r>
       <r>   -0.4597    0.0000 </r>
       <r>   -0.3813    0.0000 </r>
       <r>   -0.3772    0.0000 </r>
       <r>   -0.1793    0.0000 </r>
       <r>   -0.1611    0.0000 </r>
       <r>   -0.1594    0.0000 </r>
       <r>    0.2307    0.0000 </r>
       <r>    0.4405    0.0000 </r>
       <r>    0.4464    0.0000 </r>
       <r>    0.4499    0.0000 </r>
       <r>    0.4912    0.0000 </r>
       <r>    0.5636    0.0000 </r>
       <r>    0.5686    0.0000 </r>
       <r>    0.5798    0.0000 </r>
       <r>    0.6334    0.0000 </r>
       <r>    0.6334    0.0000 </r>
       <r>    0.6376    0.0000 </r>
       <r>    0.8536    0.0000 </r>
       <r>    0.8649    0.0000 </r>
       <r>    0.8754    0.0000 </r>
       <r>    0.9228    0.0000 </r>
       <r>    0.9260    0.0000 </r>
       <r>    0.9826    0.0000 </r>
       <r>    0.9990    0.0000 </r>
       <r>    1.0034    0.0000 </r>
       <r>    1.0691    0.0000 </r>
       <r>    1.0859    0.0000 </r>
       <r>    1.0881    0.0000 </r>
       <r>    1.1138    0.0000 </r>
      </set>
      <set comment="kpoint 2">
       <r>  -26.0760    1.0000 </r>
       <r>  -26.0612    1.0000 </r>
       <r>  -26.0595    1.0000 </r>
       <r>  -25.9407    1.0000 </r>
       <r>  -25.9373    1.0000 </r>
       <r>  -25.9325    1.0000 </r>
       <r>  -25.7536    1.0000 </r>
       <r>  -25.7428    1.0000 </r>
       <r>  -25.7412    1.0000 </r>
       <r>  -24.8164    1.0000 </r>
       <r>  -24.8156    1.0000 </r>
       <r>  -24.8143    1.0000 </r>
       <r>  -23.7940    1.0000 </r>
       <r>  -23.7915    1.0000 </r>
       <r>  -23.7877    1.0000 </r>
       <r>  -22.9926    1.0000 </r>
       <r>  -22.9808    1.0000 </r>
       <r>  -22.9792    1.0000 </r>
       <r>  -22.3899    1.0000 </r>
       <r>  -22.3686    1.0000 </r>
       <r>  -22.3663    1.0000 </r>
       <r>  -21.8958    1.0000 </r>
       <r>  -21.5500    1.0000 </r>
       <r>  -19.7775    1.0000 </r>
       <r>  -19.7763    1.0000 </r>
       <r>  -19.3334    1.0000 </r>
       <r>  -19.2915    1.0000 </r>
       <r>  -19.2857    1.0000 </r>
       <r>  -18.7773    1.0000 </r>
       <r>  -18.7742    1.0000 </r>
       <r>  -17.7025    1.0000 </r>
       <r>  -17.6702    1.0000 </r>
       <r>  -17.6691    1.0000 </r>
       <r>  -17.2862    1.0000 </r>
       <r>  -17.1453    1.0000 </r>
       <r>  -17.1423    1.0000 </r>
       <r>  -16.1895    1.0000 </r>
       <r>  -16.1860    1.0000 </r>
       <r>  -15.9985    1.0000 </r>
       <r>  -15.7671    1.0000 </r>
       <r>  -15.7643    1.0000 </r>
       <r>  -15.5212    1.0000 </r>
       <r>  -15.3769    1.0000 </r>
       <r>  -15.3748    1.0000 </r>
       <r>  -14.8708    1.0000 </r>
       <r>  -14.8658    1.0000 </r>
       <r>  -14.6070    1.0000 </r>
       <r>  -14.4690    1.0000 </r>
       <r>  -13.8471    1.0000 </r>
       <r>  -13.8411    1.0000 </r>
       <r>  -13.8373    1.0000 </r>
       <r>  -13.5820    1.0000 </r>
       <r>  -13.5787    1.0000 </r>
       <r>  -13.5325    1.0000 </r>
       <r>  -13.5278    1.0000 </r>
       <r>  -13.2296    1.0000 </r>
       <r>  -12.9040    1.0000 </r>
       <r>  -12.6340    1.0000 </r>
       <r>  -12.4676    1.0000 </r>
       <r>  -12.4595    1.0000 </r>
       <r>  -12.2937    1.0000 </r>
       <r>  -12.1674    1.0000 </r>
       <r>  -12.1652    1.0000 </r>
       <r>  -12.0018    1.0000 </r>
       <r>  -11.7559    1.0000 </r>
       <r>  -11.5063    1.0000 </r>
       <r>  -11.4958    1.0000 </r>
       <r>  -11.4190    1.0000 </r>
       <r>  -11.3982    1.0000 </r>
       <r>  -11.3594    1.0000 </r>
       <r>  -11.3570    1.0000 </r>
       <r>  -11.2429    1.0000 </r>
       <r>  -11.1664    1.0000 </r>
       <r>  -11.1644    1.0000 </r>
       <r>  -10.8743    1.0000 </r>
       <r>  -10.7878    1.0000 </r>
       <r>  -10.7817    1.0000 </r>
       <r>  -10.7699    1.0000 </r>
       <r>  -10.7134    1.0000 </r>
       <r>  -10.7066    1.0000 </r>
       <r>  -10.6396    1.0000 </r>
       <r>  -10.5746    1.0000 </r>
       <r>  -10.5701    1.0000 </r>
       <r>  -10.3525    1.0000 </r>
       <r>  -10.3405    1.0000 </r>
       <r>  -10.2917    1.0000 </r>
       <r>  -10.0645    1.0000 </r>
       <r>  -10.0625    1.0000 </r>
       <r>  -10.0357    1.0000 </r>
       <r>   -9.8944    1.0000 </r>
       <r>   -9.7588    1.0000 </r>
       <r>   -9.7529    1.0000 </r>
       <r>   -9.6543    1.0000 </r>
       <r>   -9.6397    1.0000 </r>
       <r>   -9.6380    1.0000 </r>
       <r>   -9.2532    1.0000 </r>
       <r>   -9.0033    1.0000 </r>
       <r>   -8.9968    1.0000 </r>
       <r>   -8.7462    1.0000 </r>
       <r>   -8.6884    1.0000 </r>
       <r>   -8.6861    1.0000 </r>
       <r>   -8.4616    1.0000 </r>
       <r>   -8.4582    1.0000 </r>
       <r>   -8.4274    1.0000 </r>
       <r>   -8.4020    1.0000 </r>
       <r>   -8.3943    1.0000 </r>
       <r>   -8.1495    1.0000 </r>
       <r>   -7.6841    1.0000 </r>
       <r>   -7.6808    1.0000 </r>
       <r>   -7.6442    1.0000 </r>
       <r>   -7.0969    1.0000 </r>
       <r>   -7.0931    1.0000 </r>
       <r>   -7.0793    1.0000 </r>
       <r>   -6.9588    1.0000 </r>
       <r>   -6.9559    1.0000 </r>
       <r>   -6.9355    1.0000 </r>
       <r>   -6.9120    1.0000 </r>
       <r>   -6.9103    1.0000 </r>
       <r>   -6.8838    1.0000 </r>
       <r>   -6.7774    1.0000 </r>
       <r>   -6.7689    1.0000 </r>
       <r>   -6.5065    1.0000 </r>
       <r>   -6.5031    1.0000 </r>
       <r>   -6.3254    1.0000 </r>
       <r>   -6.2046    1.0000 </r>
       <r>   -6.2020    1.0000 </r>
       <r>   -5.8308    1.0000 </r>
       <r>   -5.6592    1.0000 </r>
       <r>   -5.6514    1.0000 </r>
       <r>   -5.3563    1.0000 </r>
       <r>   -5.3129    1.0000 </r>
       <r>   -5.3080    1.0000 </r>
       <r>   -5.2464    1.0000 </r>
       <r>   -5.1142    1.0000 </r>
       <r>   -5.1098    1.0000 </r>
       <r>   -2.6759    0.0000 </r>
       <r>   -2.6643    0.0000 </r>
       <r>   -2.2611    0.0000 </r>
       <r>   -2.2438    0.0000 </r>
       <r>   -2.2405    0.0000 </r>
       <r>   -2.1565    0.0000 </r>
       <r>   -2.1535    0.0000 </r>
       <r>   -1.9256    0.0000 </r>
       <r>   -1.2124    0.0000 </r>
       <r>   -1.2089    0.0000 </r>
       <r>   -1.0572    0.0000 </r>
       <r>   -0.6706    0.0000 </r>
       <r>   -0.4600    0.0000 </r>
       <r>   -0.3811    0.0000 </r>
       <r>   -0.3772    0.0000 </r>
       <r>   -0.1803    0.0000 </r>
       <r>   -0.1609    0.0000 </r>
       <r>   -0.1591    0.0000 </r>
       <r>    0.2309    0.0000 </r>
       <r>    0.4382    0.0000 </r>
       <r>    0.4464    0.0000 </r>
       <r>    0.4523    0.0000 </r>
       <r>    0.4909    0.0000 </r>
       <r>    0.5616    0.0000 </r>
       <r>    0.5707    0.0000 </r>
       <r>    0.5804    0.0000 </r>
       <r>    0.6318    0.0000 </r>
       <r>    0.6336    0.0000 </r>
       <r>    0.6392    0.0000 </r>
       <r>    0.8482    0.0000 </r>
       <r>    0.8653    0.0000 </r>
       <r>    0.8795    0.0000 </r>
       <r>    0.9222    0.0000 </r>
       <r>    0.9262    0.0000 </r>
       <r>    0.9832    0.0000 </r>
       <r>    0.9984    0.0000 </r>
       <r>    1.0030    0.0000 </r>
       <r>    1.0677    0.0000 </r>
       <r>    1.0844    0.0000 </r>
       <r>    1.0884    0.0000 </r>
       <r>    1.1126    0.0000 </r>
      </set>
      <set comment="kpoint 3">
       <r>  -26.0760    1.0000 </r>
       <r>  -26.0612    1.0000 </r>
       <r>  -26.0595    1.0000 </r>
       <r>  -25.9407    1.0000 </r>
       <r>  -25.9373    1.0000 </r>
       <r>  -25.9325    1.0000 </r>
       <r>  -25.7536    1.0000 </r>
       <r>  -25.7428    1.0000 </r>
       <r>  -25.7412    1.0000 </r>
       <r>  -24.8164    1.0000 </r>
       <r>  -24.8156    1.0000 </r>
       <r>  -24.8143    1.0000 </r>
       <r>  -23.7940    1.0000 </r>
       <r>  -23.7915    1.0000 </r>
       <r>  -23.7878    1.0000 </r>
       <r>  -22.9926    1.0000 </r>
       <r>  -22.9808    1.0000 </r>
       <r>  -22.9792    1.0000 </r>
       <r>  -22.3898    1.0000 </r>
       <r>  -22.3686    1.0000 </r>
       <r>  -22.3664    1.0000 </r>
       <r>  -21.8958    1.0000 </r>
       <r>  -21.5500    1.0000 </r>
       <r>  -19.7774    1.0000 </r>
       <r>  -19.7757    1.0000 </r>
       <r>  -19.3470    1.0000 </r>
       <r>  -19.2915    1.0000 </r>
       <r>  -19.2717    1.0000 </r>
       <r>  -18.7786    1.0000 </r>
       <r>  -18.7742    1.0000 </r>
       <r>  -17.7024    1.0000 </r>
       <r>  -17.6703    1.0000 </r>
       <r>  -17.6692    1.0000 </r>
       <r>  -17.2855    1.0000 </r>
       <r>  -17.1456    1.0000 </r>
       <r>  -17.1425    1.0000 </r>
       <r>  -16.1893    1.0000 </r>
       <r>  -16.1859    1.0000 </r>
       <r>  -15.9988    1.0000 </r>
       <r>  -15.7668    1.0000 </r>
       <r>  -15.7643    1.0000 </r>
       <r>  -15.5266    1.0000 </r>
       <r>  -15.3749    1.0000 </r>
       <r>  -15.3706    1.0000 </r>
       <r>  -14.8728    1.0000 </r>
       <r>  -14.8658    1.0000 </r>
       <r>  -14.6060    1.0000 </r>
       <r>  -14.4688    1.0000 </r>
       <r>  -13.8481    1.0000 </r>
       <r>  -13.8422    1.0000 </r>
       <r>  -13.8356    1.0000 </r>
       <r>  -13.5822    1.0000 </r>
       <r>  -13.5791    1.0000 </r>
       <r>  -13.5330    1.0000 </r>
       <r>  -13.5274    1.0000 </r>
       <r>  -13.2284    1.0000 </r>
       <r>  -12.9044    1.0000 </r>
       <r>  -12.6332    1.0000 </r>
       <r>  -12.4677    1.0000 </r>
       <r>  -12.4602    1.0000 </r>
       <r>  -12.2938    1.0000 </r>
       <r>  -12.1681    1.0000 </r>
       <r>  -12.1652    1.0000 </r>
       <r>  -12.0007    1.0000 </r>
       <r>  -11.7563    1.0000 </r>
       <r>  -11.5059    1.0000 </r>
       <r>  -11.4957    1.0000 </r>
       <r>  -11.4190    1.0000 </r>
       <r>  -11.3988    1.0000 </r>
       <r>  -11.3593    1.0000 </r>
       <r>  -11.3571    1.0000 </r>
       <r>  -11.2427    1.0000 </r>
       <r>  -11.1664    1.0000 </r>
       <r>  -11.1645    1.0000 </r>
       <r>  -10.8743    1.0000 </r>
       <r>  -10.7881    1.0000 </r>
       <r>  -10.7817    1.0000 </r>
       <r>  -10.7696    1.0000 </r>
       <r>  -10.7134    1.0000 </r>
       <r>  -10.7067    1.0000 </r>
       <r>  -10.6396    1.0000 </r>
       <r>  -10.5745    1.0000 </r>
       <r>  -10.5701    1.0000 </r>
       <r>  -10.3548    1.0000 </r>
       <r>  -10.3406    1.0000 </r>
       <r>  -10.2888    1.0000 </r>
       <r>  -10.0645    1.0000 </r>
       <r>  -10.0625    1.0000 </r>
       <r>  -10.0354    1.0000 </r>
       <r>   -9.8944    1.0000 </r>
       <r>   -9.7608    1.0000 </r>
       <r>   -9.7529    1.0000 </r>
       <r>   -9.6542    1.0000 </r>
       <r>   -9.6395    1.0000 </r>
       <r>   -9.6379    1.0000 </r>
       <r>   -9.2511    1.0000 </r>
       <r>   -9.0033    1.0000 </r>
       <r>   -8.9968    1.0000 </r>
       <r>   -8.7508    1.0000 </r>
       <r>   -8.6882    1.0000 </r>
       <r>   -8.6843    1.0000 </r>
       <r>   -8.4603    1.0000 </r>
       <r>   -8.4582    1.0000 </r>
       <r>   -8.4273    1.0000 </r>
       <r>   -8.4012    1.0000 </r>
       <r>   -8.3942    1.0000 </r>
       <r>   -8.1502    1.0000 </r>
       <r>   -7.6840    1.0000 </r>
       <r>   -7.6808    1.0000 </r>
       <r>   -7.6444    1.0000 </r>
       <r>   -7.0968    1.0000 </r>
       <r>   -7.0930    1.0000 </r>
       <r>   -7.0793    1.0000 </r>
       <r>   -6.9588    1.0000 </r>
       <r>   -6.9559    1.0000 </r>
       <r>   -6.9356    1.0000 </r>
       <r>   -6.9119    1.0000 </r>
       <r>   -6.9103    1.0000 </r>
       <r>   -6.8841    1.0000 </r>
       <r>   -6.7773    1.0000 </r>
       <r>   -6.7688    1.0000 </r>
       <r>   -6.5066    1.0000 </r>
       <r>   -6.5031    1.0000 </r>
       <r>   -6.3249    1.0000 </r>
       <r>   -6.2053    1.0000 </r>
       <r>   -6.2020    1.0000 </r>
       <r>   -5.8300    1.0000 </r>
       <r>   -5.6598    1.0000 </r>
       <r>   -5.6515    1.0000 </r>
       <r>   -5.3562    1.0000 </r>
       <r>   -5.3132    1.0000 </r>
       <r>   -5.3083    1.0000 </r>
       <r>   -5.2456    1.0000 </r>
       <r>   -5.1142    1.0000 </r>
       <r>   -5.1100    1.0000 </r>
       <r>   -2.6755    0.0000 </r>
       <r>   -2.6643    0.0000 </r>
       <r>   -2.2709    0.0000 </r>
       <r>   -2.2434    0.0000 </r>
       <r>   -2.2327    0.0000 </r>
       <r>   -2.1565    0.0000 </r>
       <r>   -2.1534    0.0000 </r>
       <r>   -1.9228    0.0000 </r>
       <r>   -1.2209    0.0000 </r>
       <r>   -1.2117    0.0000 </r>
       <r>   -1.0466    0.0000 </r>
       <r>   -0.6704    0.0000 </r>
       <r>   -0.4609    0.0000 </r>
       <r>   -0.3804    0.0000 </r>
       <r>   -0.3773    0.0000 </r>
       <r>   -0.1833    0.0000 </r>
       <r>   -0.1608    0.0000 </r>
       <r>   -0.1579    0.0000 </r>
       <r>    0.2314    0.0000 </r>
       <r>    0.4337    0.0000 </r>
       <r>    0.4464    0.0000 </r>
       <r>    0.4568    0.0000 </r>
       <r>    0.4902    0.0000 </r>
       <r>    0.5587    0.0000 </r>
       <r>    0.5734    0.0000 </r>
       <r>    0.5823    0.0000 </r>
       <r>    0.6296    0.0000 </r>
       <r>    0.6333    0.0000 </r>
       <r>    0.6422    0.0000 </r>
       <r>    0.8384    0.0000 </r>
       <r>    0.8643    0.0000 </r>
       <r>    0.8876    0.0000 </r>
       <r>    0.9202    0.0000 </r>
       <r>    0.9268    0.0000 </r>
       <r>    0.9844    0.0000 </r>
       <r>    0.9965    0.0000 </r>
       <r>    1.0020    0.0000 </r>
       <r>    1.0640    0.0000 </r>
       <r>    1.0820    0.0000 </r>
       <r>    1.0878    0.0000 </r>
       <r>    1.1124    0.0000 </r>
      </set>
      <set comment="kpoint 4">
       <r>  -26.0760    1.0000 </r>
       <r>  -26.0612    1.0000 </r>
       <r>  -26.0595    1.0000 </r>
       <r>  -25.9407    1.0000 </r>
       <r>  -25.9373    1.0000 </r>
       <r>  -25.9325    1.0000 </r>
       <r>  -25.7536    1.0000 </r>
       <r>  -25.7428    1.0000 </r>
       <r>  -25.7412    1.0000 </r>
       <r>  -24.8164    1.0000 </r>
       <r>  -24.8156    1.0000 </r>
       <r>  -24.8143    1.0000 </r>
       <r>  -23.7940    1.0000 </r>
       <r>  -23.7915    1.0000 </r>
       <r>  -23.7878    1.0000 </r>
       <r>  -22.9925    1.0000 </r>
       <r>  -22.9809    1.0000 </r>
       <r>  -22.9792    1.0000 </r>
       <r>  -22.3896    1.0000 </r>
       <r>  -22.3686    1.0000 </r>
       <r>  -22.3665    1.0000 </r>
       <r>  -21.8958    1.0000 </r>
       <r>  -21.5500    1.0000 </r>
       <r>  -19.7773    1.0000 </r>
       <r>  -19.7745    1.0000 </r>
       <r>  -19.3621    1.0000 </r>
       <r>  -19.2915    1.0000 </r>
       <r>  -19.2559    1.0000 </r>
       <r>  -18.7807    1.0000 </r>
       <r>  -18.7742    1.0000 </r>
       <r>  -17.7023    1.0000 </r>
       <r>  -17.6705    1.0000 </r>
       <r>  -17.6692    1.0000 </r>
       <r>  -17.2844    1.0000 </r>
       <r>  -17.1460    1.0000 </r>
       <r>  -17.1426    1.0000 </r>
       <r>  -16.1890    1.0000 </r>
       <r>  -16.1856    1.0000 </r>
       <r>  -15.9992    1.0000 </r>
       <r>  -15.7662    1.0000 </r>
       <r>  -15.7642    1.0000 </r>
       <r>  -15.5346    1.0000 </r>
       <r>  -15.3751    1.0000 </r>
       <r>  -15.3612    1.0000 </r>
       <r>  -14.8763    1.0000 </r>
       <r>  -14.8658    1.0000 </r>
       <r>  -14.6044    1.0000 </r>
       <r>  -14.4686    1.0000 </r>
       <r>  -13.8497    1.0000 </r>
       <r>  -13.8430    1.0000 </r>
       <r>  -13.8338    1.0000 </r>
       <r>  -13.5827    1.0000 </r>
       <r>  -13.5796    1.0000 </r>
       <r>  -13.5338    1.0000 </r>
       <r>  -13.5267    1.0000 </r>
       <r>  -13.2265    1.0000 </r>
       <r>  -12.9051    1.0000 </r>
       <r>  -12.6319    1.0000 </r>
       <r>  -12.4679    1.0000 </r>
       <r>  -12.4612    1.0000 </r>
       <r>  -12.2938    1.0000 </r>
       <r>  -12.1693    1.0000 </r>
       <r>  -12.1652    1.0000 </r>
       <r>  -11.9988    1.0000 </r>
       <r>  -11.7570    1.0000 </r>
       <r>  -11.5053    1.0000 </r>
       <r>  -11.4956    1.0000 </r>
       <r>  -11.4189    1.0000 </r>
       <r>  -11.3997    1.0000 </r>
       <r>  -11.3593    1.0000 </r>
       <r>  -11.3571    1.0000 </r>
       <r>  -11.2423    1.0000 </r>
       <r>  -11.1663    1.0000 </r>
       <r>  -11.1645    1.0000 </r>
       <r>  -10.8744    1.0000 </r>
       <r>  -10.7886    1.0000 </r>
       <r>  -10.7817    1.0000 </r>
       <r>  -10.7691    1.0000 </r>
       <r>  -10.7135    1.0000 </r>
       <r>  -10.7070    1.0000 </r>
       <r>  -10.6395    1.0000 </r>
       <r>  -10.5743    1.0000 </r>
       <r>  -10.5700    1.0000 </r>
       <r>  -10.3583    1.0000 </r>
       <r>  -10.3407    1.0000 </r>
       <r>  -10.2845    1.0000 </r>
       <r>  -10.0644    1.0000 </r>
       <r>  -10.0625    1.0000 </r>
       <r>  -10.0349    1.0000 </r>
       <r>   -9.8946    1.0000 </r>
       <r>   -9.7641    1.0000 </r>
       <r>   -9.7529    1.0000 </r>
       <r>   -9.6540    1.0000 </r>
       <r>   -9.6392    1.0000 </r>
       <r>   -9.6375    1.0000 </r>
       <r>   -9.2477    1.0000 </r>
       <r>   -9.0034    1.0000 </r>
       <r>   -8.9970    1.0000 </r>
       <r>   -8.7577    1.0000 </r>
       <r>   -8.6881    1.0000 </r>
       <r>   -8.6818    1.0000 </r>
       <r>   -8.4583    1.0000 </r>
       <r>   -8.4581    1.0000 </r>
       <r>   -8.4273    1.0000 </r>
       <r>   -8.3999    1.0000 </r>
       <r>   -8.3940    1.0000 </r>
       <r>   -8.1514    1.0000 </r>
       <r>   -7.6838    1.0000 </r>
       <r>   -7.6807    1.0000 </r>
       <r>   -7.6448    1.0000 </r>
       <r>   -7.0967    1.0000 </r>
       <r>   -7.0928    1.0000 </r>
       <r>   -7.0793    1.0000 </r>
       <r>   -6.9587    1.0000 </r>
       <r>   -6.9559    1.0000 </r>
       <r>   -6.9358    1.0000 </r>
       <r>   -6.9119    1.0000 </r>
       <r>   -6.9102    1.0000 </r>
       <r>   -6.8845    1.0000 </r>
       <r>   -6.7773    1.0000 </r>
       <r>   -6.7686    1.0000 </r>
       <r>   -6.5066    1.0000 </r>
       <r>   -6.5032    1.0000 </r>
       <r>   -6.3241    1.0000 </r>
       <r>   -6.2064    1.0000 </r>
       <r>   -6.2021    1.0000 </r>
       <r>   -5.8286    1.0000 </r>
       <r>   -5.6607    1.0000 </r>
       <r>   -5.6516    1.0000 </r>
       <r>   -5.3559    1.0000 </r>
       <r>   -5.3136    1.0000 </r>
       <r>   -5.3089    1.0000 </r>
       <r>   -5.2444    1.0000 </r>
       <r>   -5.1141    1.0000 </r>
       <r>   -5.1105    1.0000 </r>
       <r>   -2.6749    0.0000 </r>
       <r>   -2.6642    0.0000 </r>
       <r>   -2.2811    0.0000 </r>
       <r>   -2.2435    0.0000 </r>
       <r>   -2.2249    0.0000 </r>
       <r>   -2.1565    0.0000 </r>
       <r>   -2.1534    0.0000 </r>
       <r>   -1.9181    0.0000 </r>
       <r>   -1.2369    0.0000 </r>
       <r>   -1.2118    0.0000 </r>
       <r>   -1.0316    0.0000 </r>
       <r>   -0.6700    0.0000 </r>
       <r>   -0.4622    0.0000 </r>
       <r>   -0.3793    0.0000 </r>
       <r>   -0.3774    0.0000 </r>
       <r>   -0.1877    0.0000 </r>
       <r>   -0.1608    0.0000 </r>
       <r>   -0.1563    0.0000 </r>
       <r>    0.2324    0.0000 </r>
       <r>    0.4289    0.0000 </r>
       <r>    0.4464    0.0000 </r>
       <r>    0.4617    0.0000 </r>
       <r>    0.4891    0.0000 </r>
       <r>    0.5561    0.0000 </r>
       <r>    0.5748    0.0000 </r>
       <r>    0.5862    0.0000 </r>
       <r>    0.6278    0.0000 </r>
       <r>    0.6327    0.0000 </r>
       <r>    0.6456    0.0000 </r>
       <r>    0.8278    0.0000 </r>
       <r>    0.8620    0.0000 </r>
       <r>    0.8955    0.0000 </r>
       <r>    0.9173    0.0000 </r>
       <r>    0.9281    0.0000 </r>
       <r>    0.9850    0.0000 </r>
       <r>    0.9941    0.0000 </r>
       <r>    1.0012    0.0000 </r>
       <r>    1.0597    0.0000 </r>
       <r>    1.0789    0.0000 </r>
       <r>    1.0866    0.0000 </r>
       <r>    1.1151    0.0000 </r>
      </set>
      <set comment="kpoint 5">
       <r>  -26.0760    1.0000 </r>
       <r>  -26.0612    1.0000 </r>
       <r>  -26.0595    1.0000 </r>
       <r>  -25.9406    1.0000 </r>
       <r>  -25.9373    1.0000 </r>
       <r>  -25.9325    1.0000 </r>
       <r>  -25.7536    1.0000 </r>
       <r>  -25.7428    1.0000 </r>
       <r>  -25.7412    1.0000 </r>
       <r>  -24.8164    1.0000 </r>
       <r>  -24.8156    1.0000 </r>
       <r>  -24.8143    1.0000 </r>
       <r>  -23.7940    1.0000 </r>
       <r>  -23.7914    1.0000 </r>
       <r>  -23.7878    1.0000 </r>
       <r>  -22.9924    1.0000 </r>
       <r>  -22.9809    1.0000 </r>
       <r>  -22.9793    1.0000 </r>
       <r>  -22.3894    1.0000 </r>
       <r>  -22.3687    1.0000 </r>
       <r>  -22.3667    1.0000 </r>
       <r>  -21.8958    1.0000 </r>
       <r>  -21.5500    1.0000 </r>
       <r>  -19.7772    1.0000 </r>
       <r>  -19.7728    1.0000 </r>
       <r>  -19.3775    1.0000 </r>
       <r>  -19.2915    1.0000 </r>
       <r>  -19.2395    1.0000 </r>
       <r>  -18.7837    1.0000 </r>
       <r>  -18.7743    1.0000 </r>
       <r>  -17.7022    1.0000 </r>
       <r>  -17.6708    1.0000 </r>
       <r>  -17.6693    1.0000 </r>
       <r>  -17.2830    1.0000 </r>
       <r>  -17.1466    1.0000 </r>
       <r>  -17.1428    1.0000 </r>
       <r>  -16.1886    1.0000 </r>
       <r>  -16.1851    1.0000 </r>
       <r>  -15.9999    1.0000 </r>
       <r>  -15.7655    1.0000 </r>
       <r>  -15.7641    1.0000 </r>
       <r>  -15.5444    1.0000 </r>
       <r>  -15.3753    1.0000 </r>
       <r>  -15.3495    1.0000 </r>
       <r>  -14.8812    1.0000 </r>
       <r>  -14.8656    1.0000 </r>
       <r>  -14.6022    1.0000 </r>
       <r>  -14.4682    1.0000 </r>
       <r>  -13.8518    1.0000 </r>
       <r>  -13.8435    1.0000 </r>
       <r>  -13.8321    1.0000 </r>
       <r>  -13.5834    1.0000 </r>
       <r>  -13.5803    1.0000 </r>
       <r>  -13.5349    1.0000 </r>
[...]
       <r>   -26.6387     0.0000     0.0000 </r>
       <r>   -26.5389     0.0000     0.0000 </r>
       <r>   -26.4390     0.0000     0.0000 </r>
       <r>   -26.3392     0.0000     0.0000 </r>
       <r>   -26.2394     0.0000     0.0000 </r>
       <r>   -26.1395     0.0000     0.0000 </r>
       <r>   -26.0397    60.0233     5.9927 </r>
       <r>   -25.9398    21.0386     8.1005 </r>
       <r>   -25.8400     0.0000    12.0000 </r>
       <r>   -25.7402    43.5649    16.3495 </r>
       <r>   -25.6403     0.0000    18.0000 </r>
       <r>   -25.5405     0.0000    18.0000 </r>
       <r>   -25.4406     0.0000    18.0000 </r>
       <r>   -25.3408     0.0000    18.0000 </r>
       <r>   -25.2410     0.0000    18.0000 </r>
       <r>   -25.1411     0.0000    18.0000 </r>
       <r>   -25.0413     0.0000    18.0000 </r>
       <r>   -24.9414     0.0000    18.0000 </r>
       <r>   -24.8416     0.0072    18.0007 </r>
       <r>   -24.7418    60.0888    24.0000 </r>
       <r>   -24.6419     0.0000    24.0000 </r>
       <r>   -24.5421     0.0000    24.0000 </r>
       <r>   -24.4422     0.0000    24.0000 </r>
       <r>   -24.3424     0.0000    24.0000 </r>
       <r>   -24.2426     0.0000    24.0000 </r>
       <r>   -24.1427     0.0000    24.0000 </r>
       <r>   -24.0429     0.0000    24.0000 </r>
       <r>   -23.9430     0.0000    24.0000 </r>
       <r>   -23.8432     0.0000    24.0000 </r>
       <r>   -23.7434    60.0960    30.0000 </r>
       <r>   -23.6435     0.0000    30.0000 </r>
       <r>   -23.5437     0.0000    30.0000 </r>
       <r>   -23.4438     0.0000    30.0000 </r>
       <r>   -23.3440     0.0000    30.0000 </r>
       <r>   -23.2442     0.0000    30.0000 </r>
       <r>   -23.1443     0.0000    30.0000 </r>
       <r>   -23.0445     0.0000    30.0000 </r>
       <r>   -22.9446    60.0960    36.0000 </r>
       <r>   -22.8448     0.0000    36.0000 </r>
       <r>   -22.7450     0.0000    36.0000 </r>
       <r>   -22.6451     0.0000    36.0000 </r>
       <r>   -22.5453     0.0000    36.0000 </r>
       <r>   -22.4454     0.0000    36.0000 </r>
       <r>   -22.3456    60.0713    41.9975 </r>
       <r>   -22.2458     0.0000    42.0000 </r>
       <r>   -22.1459     0.0000    42.0000 </r>
       <r>   -22.0461     0.0000    42.0000 </r>
       <r>   -21.9462     0.0000    42.0000 </r>
       <r>   -21.8464    20.0320    44.0000 </r>
       <r>   -21.7465     0.0000    44.0000 </r>
       <r>   -21.6467     0.0000    44.0000 </r>
       <r>   -21.5469    13.7951    45.3773 </r>
       <r>   -21.4470     0.0000    46.0000 </r>
       <r>   -21.3472     0.0000    46.0000 </r>
       <r>   -21.2473     0.0000    46.0000 </r>
       <r>   -21.1475     0.0000    46.0000 </r>
       <r>   -21.0477     0.0000    46.0000 </r>
       <r>   -20.9478     0.0000    46.0000 </r>
       <r>   -20.8480     0.0000    46.0000 </r>
       <r>   -20.7481     0.0000    46.0000 </r>
       <r>   -20.6483     0.0000    46.0000 </r>
       <r>   -20.5485     0.0000    46.0000 </r>
       <r>   -20.4486     0.0000    46.0000 </r>
       <r>   -20.3488     0.0000    46.0000 </r>
       <r>   -20.2489     0.0000    46.0000 </r>
       <r>   -20.1491     0.0000    46.0000 </r>
       <r>   -20.0493     0.0000    46.0000 </r>
       <r>   -19.9494     0.0000    46.0000 </r>
       <r>   -19.8496     0.0000    46.0000 </r>
       <r>   -19.7497    27.2648    48.7221 </r>
       <r>   -19.6499     9.6785    50.0000 </r>
       <r>   -19.5501     1.0166    50.1015 </r>
       <r>   -19.4502     6.7524    51.4078 </r>
       <r>   -19.3504     3.2892    51.8284 </r>
       <r>   -19.2505    23.1041    54.2401 </r>
       <r>   -19.1507     3.2121    54.6207 </r>
       <r>   -19.0509     6.3375    55.3328 </r>
       <r>   -18.9510     2.3354    56.0000 </r>
       <r>   -18.8512    10.4238    57.0407 </r>
       <r>   -18.7513    28.0337    59.9990 </r>
       <r>   -18.6515     0.0000    60.0000 </r>
       <r>   -18.5517     0.0000    60.0000 </r>
       <r>   -18.4518     0.0000    60.0000 </r>
       <r>   -18.3520     0.0000    60.0000 </r>
       <r>   -18.2521     0.0000    60.0000 </r>
       <r>   -18.1523     0.0000    60.0000 </r>
       <r>   -18.0525     0.0000    60.0000 </r>
       <r>   -17.9526     0.0000    60.0000 </r>
       <r>   -17.8528     0.0000    60.0000 </r>
       <r>   -17.7529     0.0000    60.0000 </r>
       <r>   -17.6531    59.8454    65.9750 </r>
       <r>   -17.5533     0.0000    66.0000 </r>
       <r>   -17.4534     0.0000    66.0000 </r>
       <r>   -17.3536     0.0000    66.0000 </r>
       <r>   -17.2537    10.9805    67.0963 </r>
       <r>   -17.1539    15.4945    69.5470 </r>
       <r>   -17.0541     0.0000    72.0000 </r>
       <r>   -16.9542     0.0000    72.0000 </r>
       <r>   -16.8544     0.0000    72.0000 </r>
       <r>   -16.7545     0.0000    72.0000 </r>
       <r>   -16.6547     0.0000    72.0000 </r>
       <r>   -16.5549     0.0000    72.0000 </r>
       <r>   -16.4550     0.0000    72.0000 </r>
       <r>   -16.3552     0.0000    72.0000 </r>
       <r>   -16.2553     0.0000    72.0000 </r>
       <r>   -16.1555    39.4633    75.9400 </r>
       <r>   -16.0557     0.0000    76.0000 </r>
       <r>   -15.9558    20.0320    78.0000 </r>
       <r>   -15.8560     0.0000    78.0000 </r>
       <r>   -15.7561    22.9298    80.2893 </r>
       <r>   -15.6563    19.9177    83.0557 </r>
       <r>   -15.5565     4.5025    83.6496 </r>
       <r>   -15.4566     2.3367    84.0000 </r>
       <r>   -15.3568    22.3957    86.2360 </r>
       <r>   -15.2569     3.2816    86.6610 </r>
       <r>   -15.1571     5.1537    87.2479 </r>
       <r>   -15.0573     6.0949    88.1419 </r>
       <r>   -14.9574     8.7169    89.2037 </r>
       <r>   -14.8576    21.9404    91.4906 </r>
       <r>   -14.7577     0.0000    92.0000 </r>
       <r>   -14.6579     0.0000    92.0000 </r>
       <r>   -14.5581    18.4623    93.8433 </r>
       <r>   -14.4582    14.3408    95.4318 </r>
       <r>   -14.3584     0.0000    96.0000 </r>
       <r>   -14.2585     0.0000    96.0000 </r>
       <r>   -14.1587     0.0000    96.0000 </r>
       <r>   -14.0589     0.0000    96.0000 </r>
       <r>   -13.9590     0.0000    96.0000 </r>
       <r>   -13.8592    16.2267    97.6201 </r>
       <r>   -13.7593    20.0299   102.0000 </r>
       <r>   -13.6595     0.0000   102.0000 </r>
       <r>   -13.5597    45.3371   106.5265 </r>
       <r>   -13.4598    25.0378   110.0000 </r>
       <r>   -13.3600     0.0000   110.0000 </r>
       <r>   -13.2601     0.0000   110.0000 </r>
       <r>   -13.1603    18.6997   111.8670 </r>
       <r>   -13.0604     0.0000   112.0000 </r>
       <r>   -12.9606     0.0003   112.0000 </r>
       <r>   -12.8608    20.0317   114.0000 </r>
       <r>   -12.7609     0.0000   114.0000 </r>
       <r>   -12.6611     0.0001   114.0000 </r>
       <r>   -12.5612    17.6332   115.7605 </r>
       <r>   -12.4614    33.2260   119.3840 </r>
       <r>   -12.3616     0.0000   120.0000 </r>
       <r>   -12.2617    20.0320   122.0000 </r>
       <r>   -12.1619    33.3179   125.3265 </r>
       <r>   -12.0620     0.0000   126.0000 </r>
       <r>   -11.9622     8.7696   126.8756 </r>
       <r>   -11.8624     0.0000   128.0000 </r>
       <r>   -11.7625    15.5209   129.5496 </r>
       <r>   -11.6627     0.0000   130.0000 </r>
       <r>   -11.5628     0.0000   130.0000 </r>
       <r>   -11.4630    39.8849   133.9821 </r>
       <r>   -11.3632    54.2702   139.4184 </r>
       <r>   -11.2633     0.0065   142.0006 </r>
       <r>   -11.1635    44.0040   146.3940 </r>
       <r>   -11.0636     0.0000   148.0000 </r>
       <r>   -10.9638     0.0000   148.0000 </r>
       <r>   -10.8640    18.7963   149.8766 </r>
       <r>   -10.7641    45.1881   154.5116 </r>
       <r>   -10.6643    40.0655   160.0002 </r>
       <r>   -10.5644    53.4074   165.3324 </r>
       <r>   -10.4646     0.0000   166.0000 </r>
       <r>   -10.3648    17.0024   167.6975 </r>
       <r>   -10.2649    23.6138   170.4255 </r>
       <r>   -10.1651    13.6881   172.0000 </r>
       <r>   -10.0652    11.9320   173.1913 </r>
       <r>    -9.9654    20.0320   178.0000 </r>
       <r>    -9.8656    20.3091   180.0277 </r>
       <r>    -9.7657     9.3164   181.8636 </r>
       <r>    -9.6659     0.6416   184.0641 </r>
       <r>    -9.5660    40.0624   190.0000 </r>
       <r>    -9.4662     0.0000   190.0000 </r>
       <r>    -9.3664     0.0000   190.0000 </r>
       <r>    -9.2665     0.0548   190.0055 </r>
       <r>    -9.1667     5.7615   190.8086 </r>
       <r>    -9.0668    10.6766   191.9993 </r>
       <r>    -8.9670    38.3933   196.0000 </r>
       <r>    -8.8672    11.5978   197.1579 </r>
       <r>    -8.7673     4.4672   197.7127 </r>
       <r>    -8.6675    29.2459   200.7867 </r>
       <r>    -8.5676     0.0000   202.0000 </r>
       <r>    -8.4678     2.1311   202.2128 </r>
       <r>    -8.3680    61.9628   210.6199 </r>
       <r>    -8.2681    12.0163   211.9997 </r>
       <r>    -8.1683    14.1706   213.4148 </r>
       <r>    -8.0684     0.0000   214.0000 </r>
       <r>    -7.9686     0.0000   214.0000 </r>
       <r>    -7.8688     0.0000   214.0000 </r>
       <r>    -7.7689     0.0000   214.0000 </r>
       <r>    -7.6691    36.7480   217.6689 </r>
       <r>    -7.5692     5.6721   220.0000 </r>
       <r>    -7.4694     0.0000   220.0000 </r>
       <r>    -7.3696     0.0000   220.0000 </r>
       <r>    -7.2697     0.0000   220.0000 </r>
       <r>    -7.1699     0.0000   220.0000 </r>
       <r>    -7.0700    57.4422   225.7350 </r>
       <r>    -6.9702     1.0247   226.1023 </r>
       <r>    -6.8704    83.6822   237.9891 </r>
       <r>    -6.7705    20.9839   240.0950 </r>
       <r>    -6.6707     0.0000   242.0000 </r>
       <r>    -6.5708     0.0000   242.0000 </r>
       <r>    -6.4710    40.0640   246.0000 </r>
       <r>    -6.3712     0.0000   246.0000 </r>
       <r>    -6.2713    19.3343   247.9303 </r>
       <r>    -6.1715    31.0488   252.0000 </r>
       <r>    -6.0716     0.0000   252.0000 </r>
       <r>    -5.9718     0.0000   252.0000 </r>
       <r>    -5.8720     0.0000   252.0000 </r>
       <r>    -5.7721    14.4553   253.4432 </r>
       <r>    -5.6723    14.6655   255.4642 </r>
       <r>    -5.5724    17.3454   258.0000 </r>
       <r>    -5.4726     0.0000   258.0000 </r>
       <r>    -5.3728     0.0430   258.0043 </r>
       <r>    -5.2729    54.7501   264.0000 </r>
       <r>    -5.1731    20.0318   266.0000 </r>
       <r>    -5.0732    40.0640   270.0000 </r>
       <r>    -4.9734     0.0000   270.0000 </r>
       <r>    -4.8736     0.0000   270.0000 </r>
       <r>    -4.7737     0.0000   270.0000 </r>
       <r>    -4.6739     0.0000   270.0000 </r>
       <r>    -4.5740     0.0000   270.0000 </r>
       <r>    -4.4742     0.0000   270.0000 </r>
       <r>    -4.3743     0.0000   270.0000 </r>
       <r>    -4.2745     0.0000   270.0000 </r>
       <r>    -4.1747     0.0000   270.0000 </r>
       <r>    -4.0748     0.0000   270.0000 </r>
       <r>    -3.9750     0.0000   270.0000 </r>
       <r>    -3.8751     0.0000   270.0000 </r>
       <r>    -3.7753     0.0000   270.0000 </r>
       <r>    -3.6755     0.0000   270.0000 </r>
       <r>    -3.5756     0.0000   270.0000 </r>
       <r>    -3.4758     0.0000   270.0000 </r>
       <r>    -3.3759     0.0000   270.0000 </r>
       <r>    -3.2761     0.0000   270.0000 </r>
       <r>    -3.1763     0.0000   270.0000 </r>
       <r>    -3.0764     0.0000   270.0000 </r>
       <r>    -2.9766     0.0000   270.0000 </r>
       <r>    -2.8767     0.0000   270.0000 </r>
       <r>    -2.7769     0.0000   270.0000 </r>
       <r>    -2.6771     3.8402   270.3834 </r>
       <r>    -2.5772    13.0185   274.0000 </r>
       <r>    -2.4774     0.0000   274.0000 </r>
       <r>    -2.3775    11.3470   275.1329 </r>
       <r>    -2.2777     5.0022   275.7994 </r>
       <r>    -2.1779    32.3768   279.1659 </r>
       <r>    -2.0780    35.7013   284.0000 </r>
       <r>    -1.9782     0.0000   284.0000 </r>
       <r>    -1.8783     4.8914   284.4884 </r>
       <r>    -1.7785     3.3892   284.9051 </r>
       <r>    -1.6787     7.7607   285.7415 </r>
       <r>    -1.5788     4.7517   286.3411 </r>
       <r>    -1.4790     6.2412   287.0898 </r>
       <r>    -1.3791     2.4016   287.3731 </r>
       <r>    -1.2793     2.1464   287.6476 </r>
       <r>    -1.1795    23.0364   290.0000 </r>
       <r>    -1.0796     0.0034   290.0003 </r>
       <r>    -0.9798     3.2845   290.3946 </r>
       <r>    -0.8799     3.0765   290.7406 </r>
       <r>    -0.7801    12.0084   291.9990 </r>
       <r>    -0.6803     0.3621   292.0362 </r>
       <r>    -0.5804    12.0159   294.0000 </r>
       <r>    -0.4806    11.1377   295.1120 </r>
       <r>    -0.3807    14.7608   297.3406 </r>
       <r>    -0.2809     5.6738   300.5665 </r>
       <r>    -0.1811     7.6284   301.8950 </r>
       <r>    -0.0812    29.0312   306.0000 </r>
       <r>     0.0186     0.0000   306.0000 </r>
       <r>     0.1185     0.0000   306.0000 </r>
       <r>     0.2183     0.1004   306.0100 </r>
       <r>     0.3181    15.6907   308.0000 </r>
       <r>     0.4180    16.4337   309.6407 </r>
       <r>     0.5178    59.6986   315.8605 </r>
       <r>     0.6177    66.4067   322.6307 </r>
       <r>     0.7175    27.5872   326.8880 </r>
       <r>     0.8173    42.5940   331.2527 </r>
       <r>     0.9172    36.1943   336.1139 </r>
       <r>     1.0170    60.6474   343.1886 </r>
       <r>     1.1169    64.4928   350.1730 </r>
       <r>     1.2167     8.6762   352.0000 </r>
       <r>     1.3165     0.0000   352.0000 </r>
       <r>     1.4164     0.0000   352.0000 </r>
       <r>     1.5162     0.0000   352.0000 </r>
       <r>     1.6161     0.0000   352.0000 </r>
       <r>     1.7159     0.0000   352.0000 </r>
       <r>     1.8157     0.0000   352.0000 </r>
       <r>     1.9156     0.0000   352.0000 </r>
       <r>     2.0154     0.0000   352.0000 </r>
       <r>     2.1153     0.0000   352.0000 </r>
       <r>     2.2151     0.0000   352.0000 </r>
       <r>     2.3149     0.0000   352.0000 </r>
       <r>     2.4148     0.0000   352.0000 </r>
       <r>     2.5146     0.0000   352.0000 </r>
      </set>
     </set>
    </array>
   </total>
  </dos>
 </calculation>
 <structure name="finalpos" >
  <crystal>
   <varray name="basis" >
    <v>      22.14274415       0.00943513       0.00000000 </v>
    <v>     -11.06305377      19.14024548       0.00000000 </v>
    <v>       0.00000000       0.00000000      20.00000000 </v>
   </varray>
   <i name="volume">   8478.43880142 </i>
   <varray name="rec_basis" >
    <v>       0.04515040       0.02609691       0.00000000 </v>
    <v>      -0.00002226       0.05223307       0.00000000 </v>
    <v>       0.00000000       0.00000000       0.05000000 </v>
   </varray>
  </crystal>
  <varray name="positions" >
   <v>       0.43496816       0.47422569       0.52860419 </v>
   <v>       0.57410198       0.43373250       0.55277285 </v>
   <v>       0.03751647       0.55681379       0.51994098 </v>
   <v>       0.85783665       0.41849211       0.54557311 </v>
   <v>       0.51831377       0.95467395       0.52656398 </v>
   <v>       0.55877363       0.13434586       0.55179882 </v>
   <v>       0.58082531       0.54093657       0.52426415 </v>
   <v>       0.44122616       0.58050631       0.49736901 </v>
   <v>       0.95686713       0.41108466       0.51291708 </v>
   <v>       0.13677503       0.54998410       0.48762606 </v>
   <v>       0.45122723       0.03362359       0.52485666 </v>
   <v>       0.41156415       0.85415107       0.49772250 </v>
   <v>       0.54011425       0.30180720       0.54013492 </v>
   <v>       0.75950099       0.45211634       0.53525036 </v>
   <v>       0.69016688       0.23234250       0.53585828 </v>
   <v>       0.45794921       0.70696679       0.47508784 </v>
   <v>       0.24774549       0.53394849       0.47106077 </v>
   <v>       0.28544770       0.74475935       0.46995951 </v>
   <v>       0.36877301       0.35047333       0.56214282 </v>
   <v>       0.42459550       0.33099728       0.51393274 </v>
   <v>       0.43951293       0.35989710       0.65319329 </v>
   <v>       0.54205643       0.38763059       0.57651255 </v>
   <v>       0.98175445       0.62393228       0.55544098 </v>
   <v>       0.90570256       0.56899637       0.50772908 </v>
   <v>       0.92088436       0.55268695       0.64645660 </v>
   <v>       0.84478614       0.45109907       0.56972004 </v>
   <v>       0.64283343       0.01263348       0.55626417 </v>
   <v>       0.66046315       0.08757444       0.50818191 </v>
   <v>       0.63619799       0.07483205       0.64825836 </v>
   <v>       0.60563026       0.14839208       0.57385814 </v>
   <v>       0.57865321       0.62988121       0.49597349 </v>
   <v>       0.47272979       0.63300254       0.50088242 </v>
   <v>       0.04669515       0.41268350       0.48148866 </v>
   <v>       0.15701922       0.51780282       0.49011558 </v>
   <v>       0.36195441       0.94224828       0.49789456 </v>
   <v>       0.35918166       0.83315312       0.50186416 </v>
   <v>       0.73244205       0.34249420       0.53890107 </v>
   <v>       0.67674478       0.27346007       0.53992360 </v>
   <v>       0.60789941       0.25954155       0.54162951 </v>
   <v>       0.59470896       0.31532898       0.54227775 </v>
   <v>       0.71855237       0.39753639       0.53951036 </v>
   <v>       0.80422809       0.35220468       0.52890385 </v>
   <v>       0.54544152       0.18737017       0.53451266 </v>
   <v>       0.25842828       0.63834756       0.47153811 </v>
   <v>       0.30715772       0.70999065       0.47211883 </v>
   <v>       0.37861573       0.73372286       0.47446477 </v>
   <v>       0.40145285       0.68498620       0.47496810 </v>
   <v>       0.28221460       0.59053103       0.47240383 </v>
   <v>       0.18277207       0.61924599       0.47230577 </v>
   <v>       0.43501799       0.80937036       0.47823464 </v>
   <v>       0.54224628       0.47306978       0.53923295 </v>
   <v>       0.46818842       0.43915749       0.54135698 </v>
   <v>       0.42292132       0.36207950       0.55622266 </v>
   <v>       0.92858386       0.44990778       0.53037406 </v>
   <v>       0.96943727       0.52403984       0.53325901 </v>
   <v>       0.93869217       0.56994739       0.54943098 </v>
   <v>       0.51932825       0.06311132       0.53832228 </v>
   <v>       0.55350147       0.02310177       0.53884803 </v>
   <v>       0.63094907       0.05514844       0.55123913 </v>
   <v>       0.64965976       0.38428091       0.54120671 </v>
   <v>       0.63958604       0.44642385       0.53325116 </v>
   <v>       0.35370601       0.61337798       0.47460852 </v>
   <v>       0.37290618       0.55692655       0.47834743 </v>
   <v>       0.54684747       0.57459502       0.50935073 </v>
   <v>       0.47367355       0.54143829       0.51129717 </v>
   <v>       0.02426057       0.44475248       0.49720617 </v>
   <v>       0.06521374       0.51787547       0.50104940 </v>
   <v>       0.41741508       0.96583633       0.51028156 </v>
   <v>       0.45070870       0.92585778       0.51109762 </v>
   <v>       0.68553676       0.50153442       0.50937528 </v>
   <v>       0.81227279       0.30515416       0.50607211 </v>
   <v>       0.48957778       0.17851373       0.51320920 </v>
   <v>       0.32988421       0.49552328       0.46673855 </v>
   <v>       0.16530708       0.66313373       0.46177876 </v>
   <v>       0.49628183       0.82763111       0.46649873 </v>
   <v>       0.44620584       0.33890323       0.61312676 </v>
   <v>       0.89290950       0.54671520       0.60679407 </v>
   <v>       0.65597577       0.10214215       0.60774203 </v>
  </varray>
 </structure>
</modeling>
