<?xml version="1.0" encoding="ISO-8859-1"?>
<modeling>
 <generator>
  <i name="program" type="string">vasp </i>
  <i name="version" type="string">5.4.4.18Apr17-6-g9f103f2a35  </i>
  <i name="subversion" type="string">(build Jun 07 2020 16:50:00) complex            parallel </i>
  <i name="platform" type="string">LinuxIFC </i>
  <i name="date" type="string">2023 02 19 </i>
  <i name="time" type="string">13:33:44 </i>
 </generator>
 <incar>
  <i type="string" name="SYSTEM">Simulation for cell shape cell volume r</i>
  <i type="int" name="ISTART">     1</i>
  <i type="string" name="PREC">high</i>
  <i type="string" name="ALGO">48</i>
  <i type="int" name="ICHARG">    11</i>
  <i type="int" name="NELM">   200</i>
  <i type="int" name="IBRION">    -1</i>
  <i name="EDIFF">      0.00001000</i>
  <i name="EDIFFG">     -0.01000000</i>
  <i type="int" name="NSW">     0</i>
  <i type="int" name="ISIF">     2</i>
  <i name="ENCUT">    500.00000000</i>
  <i name="POTIM">      0.30000000</i>
  <i type="string" name="LREAL">A</i>
  <i type="int" name="ISMEAR">     0</i>
  <i name="SIGMA">      0.01000000</i>
  <i type="int" name="NWRITE">     0</i>
  <i type="logical" name="LWAVE"> F  </i>
  <i type="logical" name="LCHARG"> F  </i>
  <v type="int" name="KPOINT_BSE">    -1     0     0     0</v>
  <i type="int" name="NELM">   200</i>
  <i type="string" name="GGA">PE</i>
 </incar>
 <structure name="primitive_cell" >
  <crystal>
   <varray name="basis" >
    <v>      21.92435372      -0.03991702       0.00000000 </v>
    <v>     -10.99675723      19.01495347       0.00000000 </v>
    <v>       0.00000000       0.00000000      20.00000000 </v>
   </varray>
   <i name="volume">   8329.03215926 </i>
   <varray name="rec_basis" >
    <v>       0.04565946       0.02640585       0.00000000 </v>
    <v>       0.00009585       0.05264562       0.00000000 </v>
    <v>       0.00000000       0.00000000       0.05000000 </v>
   </varray>
  </crystal>
  <varray name="positions" >
   <v>       0.24730439      -0.28899742      -0.45040621 </v>
   <v>       0.28437694      -0.30842942      -0.44910266 </v>
   <v>       0.15374111      -0.36838712      -0.45008596 </v>
   <v>       0.35592500      -0.25639857      -0.44938653 </v>
   <v>       0.26375170      -0.37979210      -0.44967529 </v>
   <v>       0.32341837      -0.16764768      -0.45399511 </v>
   <v>       0.37124467      -0.18145024      -0.45438558 </v>
   <v>       0.13832345      -0.41924058      -0.46076059 </v>
   <v>       0.18861985      -0.43954415      -0.45517454 </v>
   <v>       0.40685884      -0.27681164      -0.44983407 </v>
   <v>       0.31572938      -0.39912677      -0.45000320 </v>
   <v>       0.38727483      -0.34818138      -0.45036362 </v>
   <v>       0.06787410      -0.46087005      -0.48077926 </v>
   <v>       0.44190874      -0.13107965      -0.46109809 </v>
   <v>       0.03383736      -0.39298596      -0.43342365 </v>
   <v>       0.17471530       0.49883695      -0.45608334 </v>
   <v>       0.29607784      -0.45566782      -0.45193090 </v>
   <v>       0.46351878      -0.23968365      -0.45174500 </v>
   <v>       0.47778805      -0.14602472      -0.45077794 </v>
   <v>       0.01887652      -0.43997767      -0.46354893 </v>
   <v>       0.05019891       0.48252169       0.48157865 </v>
   <v>       0.47012708      -0.06099711      -0.48168672 </v>
   <v>       0.43066004      -0.04470043       0.47984200 </v>
   <v>       0.44685900      -0.36353108      -0.45632686 </v>
   <v>      -0.04843167      -0.47807412      -0.48262870 </v>
   <v>       0.37493870      -0.46968428      -0.45244488 </v>
   <v>      -0.49124819      -0.31585423      -0.45668689 </v>
   <v>      -0.01701431       0.44473166       0.46197935 </v>
   <v>       0.42600411      -0.43415377      -0.46288158 </v>
   <v>       0.37303253      -0.00140945       0.40412163 </v>
   <v>      -0.46013066      -0.01103513      -0.46432061 </v>
   <v>       0.45943761       0.02209702       0.45952089 </v>
   <v>      -0.06702967       0.46477746       0.48098647 </v>
   <v>      -0.42765786      -0.02489889      -0.43358052 </v>
   <v>       0.41866245       0.03987412       0.42132711 </v>
   <v>       0.00470946       0.37967910       0.40842924 </v>
   <v>      -0.03603988       0.38515885       0.42500594 </v>
   <v>      -0.43163015       0.05589748      -0.48401275 </v>
   <v>      -0.47078026       0.07312608       0.47889576 </v>
   <v>       0.46751835      -0.46305025      -0.48236471 </v>
   <v>       0.44368722       0.08162585       0.39007311 </v>
   <v>      -0.13854782       0.42080309       0.46292287 </v>
   <v>      -0.07803154       0.36788304       0.39393508 </v>
   <v>      -0.47568341      -0.42422929       0.47994395 </v>
   <v>      -0.16273943      -0.49609265       0.42035968 </v>
   <v>       0.39921730       0.43523291      -0.43440394 </v>
   <v>      -0.16089283       0.36963065       0.47738816 </v>
   <v>       0.44633263       0.46713291      -0.46460401 </v>
   <v>      -0.18291790       0.44318416       0.43839700 </v>
   <v>      -0.44400561       0.14420962       0.46016960 </v>
   <v>      -0.47344284       0.16596928       0.47421258 </v>
   <v>      -0.43819156      -0.45383983       0.46065555 </v>
   <v>       0.48426931       0.43779600      -0.48325146 </v>
   <v>      -0.37293055      -0.36765002       0.40617777 </v>
   <v>      -0.37643752       0.18913288       0.43719216 </v>
   <v>      -0.33519481       0.16948119       0.42011430 </v>
   <v>      -0.25959602       0.38686289       0.43603348 </v>
   <v>      -0.45850437       0.47622231       0.48021845 </v>
   <v>      -0.37857602      -0.41369986       0.42334700 </v>
   <v>      -0.24830953       0.29321764       0.43369942 </v>
   <v>      -0.28700604       0.46685938       0.43442407 </v>
   <v>      -0.46137946       0.25401508       0.43332277 </v>
   <v>      -0.28371125       0.31466827       0.43529441 </v>
   <v>      -0.30866439       0.40994161       0.43571539 </v>
   <v>      -0.36199898      -0.43896848       0.39234216 </v>
   <v>      -0.35608977       0.26557781       0.43533277 </v>
   <v>      -0.40435228       0.28945626       0.43505929 </v>
   <v>      -0.41472016       0.44870737       0.46232482 </v>
   <v>      -0.36328723       0.47799332       0.47621852 </v>
   <v>      -0.38105460       0.36163414       0.43588529 </v>
   <v>      -0.49842304       0.34072802       0.42082159 </v>
   <v>      -0.43741433       0.38169336       0.43832358 </v>
  </varray>
 </structure>
 <varray name="primitive_index" >
  <v type="int" >        1 </v>
  <v type="int" >       25 </v>
  <v type="int" >       17 </v>
  <v type="int" >       24 </v>
  <v type="int" >       42 </v>
  <v type="int" >       69 </v>
  <v type="int" >       28 </v>
  <v type="int" >       62 </v>
  <v type="int" >       43 </v>
  <v type="int" >       23 </v>
  <v type="int" >       26 </v>
  <v type="int" >       22 </v>
  <v type="int" >       47 </v>
  <v type="int" >       66 </v>
  <v type="int" >       16 </v>
  <v type="int" >       67 </v>
  <v type="int" >        2 </v>
  <v type="int" >        3 </v>
  <v type="int" >       21 </v>
  <v type="int" >       46 </v>
  <v type="int" >       52 </v>
  <v type="int" >       51 </v>
  <v type="int" >       58 </v>
  <v type="int" >       27 </v>
  <v type="int" >       61 </v>
  <v type="int" >       19 </v>
  <v type="int" >       68 </v>
  <v type="int" >       37 </v>
  <v type="int" >       64 </v>
  <v type="int" >       14 </v>
  <v type="int" >       50 </v>
  <v type="int" >       41 </v>
  <v type="int" >       36 </v>
  <v type="int" >       20 </v>
  <v type="int" >       59 </v>
  <v type="int" >        8 </v>
  <v type="int" >       53 </v>
  <v type="int" >       65 </v>
  <v type="int" >       40 </v>
  <v type="int" >       49 </v>
  <v type="int" >       13 </v>
  <v type="int" >       54 </v>
  <v type="int" >        7 </v>
  <v type="int" >       55 </v>
  <v type="int" >       70 </v>
  <v type="int" >       18 </v>
  <v type="int" >        9 </v>
  <v type="int" >       48 </v>
  <v type="int" >       45 </v>
  <v type="int" >       60 </v>
  <v type="int" >       15 </v>
  <v type="int" >       39 </v>
  <v type="int" >       63 </v>
  <v type="int" >       11 </v>
  <v type="int" >       35 </v>
  <v type="int" >       72 </v>
  <v type="int" >       44 </v>
  <v type="int" >       38 </v>
  <v type="int" >       56 </v>
  <v type="int" >        4 </v>
  <v type="int" >        5 </v>
  <v type="int" >        6 </v>
  <v type="int" >       32 </v>
  <v type="int" >       33 </v>
  <v type="int" >       10 </v>
  <v type="int" >       31 </v>
  <v type="int" >       30 </v>
  <v type="int" >       57 </v>
  <v type="int" >       12 </v>
  <v type="int" >       29 </v>
  <v type="int" >       71 </v>
  <v type="int" >       34 </v>
 </varray>
 <kpoints>
  <generation param="listgenerated">
   <i name="divisions" type="int">      20 </i>
   <v>       0.00000000       0.00000000       0.00000000 </v>
   <v>       0.50000000       0.00000000       0.00000000 </v>
   <v>       0.33333333       0.33333333       0.00000000 </v>
   <v>       0.00000000       0.00000000       0.00000000 </v>
  </generation>
  <varray name="kpointlist" >
   <v>       0.00000000       0.00000000       0.00000000 </v>
   <v>       0.02631579       0.00000000       0.00000000 </v>
   <v>       0.05263158       0.00000000       0.00000000 </v>
   <v>       0.07894737       0.00000000       0.00000000 </v>
   <v>       0.10526316       0.00000000       0.00000000 </v>
   <v>       0.13157895       0.00000000       0.00000000 </v>
   <v>       0.15789474       0.00000000       0.00000000 </v>
   <v>       0.18421053       0.00000000       0.00000000 </v>
   <v>       0.21052632       0.00000000       0.00000000 </v>
   <v>       0.23684211       0.00000000       0.00000000 </v>
   <v>       0.26315789       0.00000000       0.00000000 </v>
   <v>       0.28947368       0.00000000       0.00000000 </v>
   <v>       0.31578947       0.00000000       0.00000000 </v>
   <v>       0.34210526       0.00000000       0.00000000 </v>
   <v>       0.36842105       0.00000000       0.00000000 </v>
   <v>       0.39473684       0.00000000       0.00000000 </v>
   <v>       0.42105263       0.00000000       0.00000000 </v>
   <v>       0.44736842       0.00000000       0.00000000 </v>
   <v>       0.47368421       0.00000000       0.00000000 </v>
   <v>       0.50000000       0.00000000       0.00000000 </v>
   <v>       0.50000000       0.00000000       0.00000000 </v>
   <v>       0.49122807       0.01754386       0.00000000 </v>
   <v>       0.48245614       0.03508772       0.00000000 </v>
   <v>       0.47368421       0.05263158       0.00000000 </v>
   <v>       0.46491228       0.07017544       0.00000000 </v>
   <v>       0.45614035       0.08771930       0.00000000 </v>
   <v>       0.44736842       0.10526316       0.00000000 </v>
   <v>       0.43859649       0.12280702       0.00000000 </v>
   <v>       0.42982456       0.14035088       0.00000000 </v>
   <v>       0.42105263       0.15789474       0.00000000 </v>
   <v>       0.41228070       0.17543860       0.00000000 </v>
   <v>       0.40350877       0.19298246       0.00000000 </v>
   <v>       0.39473684       0.21052632       0.00000000 </v>
   <v>       0.38596491       0.22807018       0.00000000 </v>
   <v>       0.37719298       0.24561404       0.00000000 </v>
   <v>       0.36842105       0.26315789       0.00000000 </v>
   <v>       0.35964912       0.28070175       0.00000000 </v>
   <v>       0.35087719       0.29824561       0.00000000 </v>
   <v>       0.34210526       0.31578947       0.00000000 </v>
   <v>       0.33333333       0.33333333       0.00000000 </v>
   <v>       0.33333333       0.33333333       0.00000000 </v>
   <v>       0.31578947       0.31578947       0.00000000 </v>
   <v>       0.29824561       0.29824561       0.00000000 </v>
   <v>       0.28070175       0.28070175       0.00000000 </v>
   <v>       0.26315789       0.26315789       0.00000000 </v>
   <v>       0.24561404       0.24561404       0.00000000 </v>
   <v>       0.22807018       0.22807018       0.00000000 </v>
   <v>       0.21052632       0.21052632       0.00000000 </v>
   <v>       0.19298246       0.19298246       0.00000000 </v>
   <v>       0.17543860       0.17543860       0.00000000 </v>
   <v>       0.15789474       0.15789474       0.00000000 </v>
   <v>       0.14035088       0.14035088       0.00000000 </v>
   <v>       0.12280702       0.12280702       0.00000000 </v>
   <v>       0.10526316       0.10526316       0.00000000 </v>
   <v>       0.08771930       0.08771930       0.00000000 </v>
   <v>       0.07017544       0.07017544       0.00000000 </v>
   <v>       0.05263158       0.05263158       0.00000000 </v>
   <v>       0.03508772       0.03508772       0.00000000 </v>
   <v>       0.01754386       0.01754386       0.00000000 </v>
   <v>       0.00000000       0.00000000       0.00000000 </v>
  </varray>
  <varray name="weights" >
   <v>       0.01666667 </v>
   <v>       0.01666667 </v>
   <v>       0.01666667 </v>
   <v>       0.01666667 </v>
   <v>       0.01666667 </v>
   <v>       0.01666667 </v>
   <v>       0.01666667 </v>
   <v>       0.01666667 </v>
   <v>       0.01666667 </v>
   <v>       0.01666667 </v>
   <v>       0.01666667 </v>
   <v>       0.01666667 </v>
   <v>       0.01666667 </v>
   <v>       0.01666667 </v>
   <v>       0.01666667 </v>
   <v>       0.01666667 </v>
   <v>       0.01666667 </v>
   <v>       0.01666667 </v>
   <v>       0.01666667 </v>
   <v>       0.01666667 </v>
   <v>       0.01666667 </v>
   <v>       0.01666667 </v>
   <v>       0.01666667 </v>
   <v>       0.01666667 </v>
   <v>       0.01666667 </v>
   <v>       0.01666667 </v>
   <v>       0.01666667 </v>
   <v>       0.01666667 </v>
   <v>       0.01666667 </v>
   <v>       0.01666667 </v>
   <v>       0.01666667 </v>
   <v>       0.01666667 </v>
   <v>       0.01666667 </v>
   <v>       0.01666667 </v>
   <v>       0.01666667 </v>
   <v>       0.01666667 </v>
   <v>       0.01666667 </v>
   <v>       0.01666667 </v>
   <v>       0.01666667 </v>
   <v>       0.01666667 </v>
   <v>       0.01666667 </v>
   <v>       0.01666667 </v>
   <v>       0.01666667 </v>
   <v>       0.01666667 </v>
   <v>       0.01666667 </v>
   <v>       0.01666667 </v>
   <v>       0.01666667 </v>
   <v>       0.01666667 </v>
   <v>       0.01666667 </v>
   <v>       0.01666667 </v>
   <v>       0.01666667 </v>
   <v>       0.01666667 </v>
   <v>       0.01666667 </v>
   <v>       0.01666667 </v>
   <v>       0.01666667 </v>
   <v>       0.01666667 </v>
   <v>       0.01666667 </v>
   <v>       0.01666667 </v>
   <v>       0.01666667 </v>
   <v>       0.01666667 </v>
  </varray>
 </kpoints>
 <parameters>
  <separator name="general" >
   <i type="string" name="SYSTEM">Simulation for cell shape cell volume r</i>
   <i type="logical" name="LCOMPAT"> F  </i>
  </separator>
  <separator name="electronic" >
   <i type="string" name="PREC">high</i>
   <i name="ENMAX">    500.00000000</i>
   <i name="ENAUG">    644.87300000</i>
   <i name="EDIFF">      0.00001000</i>
   <i type="int" name="IALGO">    38</i>
   <i type="int" name="IWAVPR">    10</i>
   <i type="int" name="NBANDS">   176</i>
   <i name="NELECT">    252.00000000</i>
   <i type="int" name="TURBO">     0</i>
   <i type="int" name="IRESTART">     0</i>
   <i type="int" name="NREBOOT">     0</i>
   <i type="int" name="NMIN">     0</i>
   <i name="EREF">      0.00000000</i>
   <separator name="electronic smearing" >
    <i type="int" name="ISMEAR">     0</i>
    <i name="SIGMA">      0.01000000</i>
    <i name="KSPACING">      0.50000000</i>
    <i type="logical" name="KGAMMA"> T  </i>
   </separator>
   <separator name="electronic projectors" >
    <i type="logical" name="LREAL"> T  </i>
    <v name="ROPT">     -0.00040000     -0.00040000     -0.00040000     -0.00040000</v>
    <i type="int" name="LMAXPAW">  -100</i>
    <i type="int" name="LMAXMIX">     2</i>
    <i type="logical" name="NLSPLINE"> F  </i>
   </separator>
   <separator name="electronic startup" >
    <i type="int" name="ISTART">     1</i>
    <i type="int" name="ICHARG">    11</i>
    <i type="int" name="INIWAV">     1</i>
   </separator>
   <separator name="electronic spin" >
    <i type="int" name="ISPIN">     1</i>
    <i type="logical" name="LNONCOLLINEAR"> F  </i>
    <v name="MAGMOM">      1.00000000      1.00000000      1.00000000      1.00000000      1.00000000      1.00000000      1.00000000      1.00000000      1.00000000      1.00000000      1.00000000      1.00000000      1.00000000      1.00000000      1.00000000      1.00000000      1.00000000      1.00000000      1.00000000      1.00000000
      1.00000000      1.00000000      1.00000000      1.00000000      1.00000000      1.00000000      1.00000000      1.00000000      1.00000000      1.00000000      1.00000000      1.00000000      1.00000000      1.00000000      1.00000000      1.00000000      1.00000000      1.00000000      1.00000000      1.00000000
      1.00000000      1.00000000      1.00000000      1.00000000      1.00000000      1.00000000      1.00000000      1.00000000      1.00000000      1.00000000      1.00000000      1.00000000      1.00000000      1.00000000      1.00000000      1.00000000      1.00000000      1.00000000      1.00000000      1.00000000
      1.00000000      1.00000000      1.00000000      1.00000000      1.00000000      1.00000000      1.00000000      1.00000000      1.00000000      1.00000000      1.00000000      1.00000000</v>
    <i name="NUPDOWN">     -1.00000000</i>
    <i type="logical" name="LSORBIT"> F  </i>
    <v name="SAXIS">      0.00000000      0.00000000      1.00000000</v>
    <i type="logical" name="LSPIRAL"> F  </i>
    <v name="QSPIRAL">      0.00000000      0.00000000      0.00000000</v>
    <i type="logical" name="LZEROZ"> F  </i>
   </separator>
   <separator name="electronic exchange-correlation" >
    <i type="logical" name="LASPH"> F  </i>
    <i type="logical" name="LMETAGGA"> F  </i>
   </separator>
   <separator name="electronic convergence" >
    <i type="int" name="NELM">   200</i>
    <i type="int" name="NELMDL">     0</i>
    <i type="int" name="NELMIN">     2</i>
    <i name="ENINI">    500.00000000</i>
    <separator name="electronic convergence detail" >
     <i type="logical" name="LDIAG"> T  </i>
     <i type="logical" name="LSUBROT"> F  </i>
     <i name="WEIMIN">      0.00000000</i>
     <i name="EBREAK">      0.00000001</i>
     <i name="DEPER">      0.30000000</i>
     <i type="int" name="NRMM">     4</i>
     <i name="TIME">      0.40000000</i>
    </separator>
   </separator>
   <separator name="electronic mixer" >
    <i name="AMIX">      0.40000000</i>
    <i name="BMIX">      1.00000000</i>
    <i name="AMIN">      0.10000000</i>
    <i name="AMIX_MAG">      1.60000000</i>
    <i name="BMIX_MAG">      1.00000000</i>
    <separator name="electronic mixer details" >
     <i type="int" name="IMIX">     4</i>
     <i type="logical" name="MIXFIRST"> F  </i>
     <i type="int" name="MAXMIX">   -45</i>
     <i name="WC">    100.00000000</i>
     <i type="int" name="INIMIX">     1</i>
     <i type="int" name="MIXPRE">     1</i>
     <i type="int" name="MREMOVE">     5</i>
    </separator>
   </separator>
   <separator name="electronic dipolcorrection" >
    <i type="logical" name="LDIPOL"> F  </i>
    <i type="logical" name="LMONO"> F  </i>
    <i type="int" name="IDIPOL">     0</i>
    <i name="EPSILON">      1.00000000</i>
    <v name="DIPOL">   -100.00000000   -100.00000000   -100.00000000</v>
    <i name="EFIELD">      0.00000000</i>
   </separator>
  </separator>
  <separator name="grids" >
   <i type="int" name="NGX">   160</i>
   <i type="int" name="NGY">   160</i>
   <i type="int" name="NGZ">   150</i>
   <i type="int" name="NGXF">   250</i>
   <i type="int" name="NGYF">   250</i>
   <i type="int" name="NGZF">   224</i>
   <i type="logical" name="ADDGRID"> F  </i>
  </separator>
  <separator name="ionic" >
   <i type="int" name="NSW">     0</i>
   <i type="int" name="IBRION">    -1</i>
   <i type="int" name="MDALGO">     0</i>
   <i type="int" name="ISIF">     2</i>
   <i name="PSTRESS">      0.00000000</i>
   <i name="EDIFFG">     -0.01000000</i>
   <i type="int" name="NFREE">     0</i>
   <i name="POTIM">      0.30000000</i>
   <i name="SMASS">     -3.00000000</i>
   <i name="SCALEE">      1.00000000</i>
  </separator>
  <separator name="ionic md" >
   <i name="TEBEG">      0.00010000</i>
   <i name="TEEND">      0.00010000</i>
   <i type="int" name="NBLOCK">     1</i>
   <i type="int" name="KBLOCK">     1</i>
   <i type="int" name="NPACO">   256</i>
   <i name="APACO">     16.00000000</i>
  </separator>
  <separator name="symmetry" >
   <i type="int" name="ISYM">     2</i>
   <i name="SYMPREC">      0.00001000</i>
  </separator>
  <separator name="dos" >
   <i type="int" name="LORBIT">     0</i>
   <v name="RWIGS">     -1.00000000     -1.00000000     -1.00000000     -1.00000000</v>
   <i type="int" name="NEDOS">   301</i>
   <i name="EMIN">     10.00000000</i>
   <i name="EMAX">    -10.00000000</i>
   <i name="EFERMI">      0.00000000</i>
  </separator>
  <separator name="writing" >
   <i type="int" name="NWRITE">     0</i>
   <i type="logical" name="LWAVE"> F  </i>
   <i type="logical" name="LDOWNSAMPLE"> F  </i>
   <i type="logical" name="LCHARG"> F  </i>
   <i type="logical" name="LPARD"> F  </i>
   <i type="logical" name="LVTOT"> F  </i>
   <i type="logical" name="LVHAR"> F  </i>
   <i type="logical" name="LELF"> F  </i>
   <i type="logical" name="LOPTICS"> F  </i>
   <v name="STM">      0.00000000      0.00000000      0.00000000      0.00000000      0.00000000      0.00000000      0.00000000</v>
  </separator>
  <separator name="performance" >
   <i type="int" name="NPAR">    16</i>
   <i type="int" name="NSIM">     4</i>
   <i type="int" name="NBLK">    -1</i>
   <i type="logical" name="LPLANE"> T  </i>
   <i type="logical" name="LSCALAPACK"> T  </i>
   <i type="logical" name="LSCAAWARE"> F  </i>
   <i type="logical" name="LSCALU"> F  </i>
   <i type="logical" name="LASYNC"> F  </i>
   <i type="logical" name="LORBITALREAL"> F  </i>
  </separator>
  <separator name="miscellaneous" >
   <i type="int" name="IDIOT">     3</i>
   <i type="int" name="ISPECIAL">     0</i>
   <i type="logical" name="LMUSIC"> F  </i>
   <v name="POMASS">      1.00000000     12.01100000     14.00100000     16.00000000</v>
   <v name="DARWINR">      0.00000000      0.00000000      0.00000000      0.00000000</v>
   <v name="DARWINV">      1.00000000      1.00000000      1.00000000      1.00000000</v>
   <i type="logical" name="LCORR"> T  </i>
  </separator>
  <i type="logical" name="GGA_COMPAT"> T  </i>
  <i type="logical" name="LBERRY"> F  </i>
  <i type="int" name="ICORELEVEL">     0</i>
  <i type="logical" name="LDAU"> F  </i>
  <i type="int" name="I_CONSTRAINED_M">     0</i>
  <separator name="electronic exchange-correlation" >
   <i type="string" name="GGA">PE</i>
   <i type="int" name="VOSKOWN">     0</i>
   <i type="logical" name="LHFCALC"> F  </i>
   <i type="string" name="PRECFOCK"></i>
   <i type="logical" name="LSYMGRAD"> F  </i>
   <i type="logical" name="LHFONE"> F  </i>
   <i type="logical" name="LRHFCALC"> F  </i>
   <i type="logical" name="LTHOMAS"> F  </i>
   <i type="logical" name="LMODELHF"> F  </i>
   <i name="ENCUT4O">     -1.00000000</i>
   <i type="int" name="EXXOEP">     0</i>
   <i type="int" name="FOURORBIT">     0</i>
   <i name="AEXX">      0.00000000</i>
   <i name="HFALPHA">      0.00000000</i>
   <i name="MCALPHA">      0.00000000</i>
   <i name="ALDAX">      1.00000000</i>
   <i name="AGGAX">      1.00000000</i>
   <i name="ALDAC">      1.00000000</i>
   <i name="AGGAC">      1.00000000</i>
   <i type="int" name="NKREDX">     1</i>
   <i type="int" name="NKREDY">     1</i>
   <i type="int" name="NKREDZ">     1</i>
   <i type="logical" name="SHIFTRED"> F  </i>
   <i type="logical" name="ODDONLY"> F  </i>
   <i type="logical" name="EVENONLY"> F  </i>
   <i type="int" name="LMAXFOCK">     0</i>
   <i type="int" name="NMAXFOCKAE">     0</i>
   <i type="logical" name="LFOCKAEDFT"> F  </i>
   <i name="HFSCREEN">      0.00000000</i>
   <i name="HFSCREENC">      0.00000000</i>
   <i type="int" name="NBANDSGWLOW">     0</i>
  </separator>
  <separator name="vdW DFT" >
   <i type="logical" name="LUSE_VDW"> F  </i>
   <i name="Zab_VDW">     -0.84910000</i>
   <i name="PARAM1">      0.12340000</i>
   <i name="PARAM2">      1.00000000</i>
   <i name="PARAM3">      0.00000000</i>
  </separator>
  <separator name="model GW" >
   <i type="int" name="MODEL_GW">     0</i>
   <i name="MODEL_EPS0">     69.40860133</i>
   <i name="MODEL_ALPHA">      1.00000000</i>
  </separator>
  <separator name="linear response parameters" >
   <i type="logical" name="LEPSILON"> F  </i>
   <i type="logical" name="LRPA"> F  </i>
   <i type="logical" name="LNABLA"> F  </i>
   <i type="logical" name="LVEL"> F  </i>
   <i type="int" name="KINTER">     0</i>
   <i name="CSHIFT">      0.10000000</i>
   <i name="OMEGAMAX">     -1.00000000</i>
   <i name="DEG_THRESHOLD">      0.00200000</i>
   <i name="RTIME">     -0.10000000</i>
   <i name="WPLASMAI">      0.00000000</i>
   <v name="DFIELD">      0.00000000      0.00000000      0.00000000</v>
   <v name="WPLASMA">      0.00000000      0.00000000      0.00000000      0.00000000      0.00000000      0.00000000      0.00000000      0.00000000      0.00000000</v>
  </separator>
  <separator name="orbital magnetization" >
   <i type="logical" name="NUCIND"> F  </i>
   <v name="MAGPOS">      0.00000000      0.00000000      0.00000000</v>
   <i type="logical" name="LNICSALL"> T  </i>
   <i type="logical" name="ORBITALMAG"> F  </i>
   <i type="logical" name="LMAGBLOCH"> F  </i>
   <i type="logical" name="LCHIMAG"> F  </i>
   <i type="logical" name="LGAUGE"> T  </i>
   <i type="int" name="MAGATOM">     0</i>
   <v name="MAGDIPOL">      0.00000000      0.00000000      0.00000000</v>
   <v name="AVECCONST">      0.00000000      0.00000000      0.00000000</v>
  </separator>
  <separator name="response functions" >
   <i type="logical" name="LADDER"> F  </i>
   <i type="logical" name="LRPAFORCE"> F  </i>
   <i type="logical" name="LFXC"> F  </i>
   <i type="logical" name="LHARTREE"> T  </i>
   <i type="int" name="IBSE">     0</i>
   <v type="int" name="KPOINT">    -1     0     0     0</v>
   <i type="logical" name="LTCTE"> F  </i>
   <i type="logical" name="LTETE"> F  </i>
   <i type="logical" name="LTRIPLET"> F  </i>
   <i type="logical" name="LFXCEPS"> F  </i>
   <i type="logical" name="LFXHEG"> F  </i>
   <i type="int" name="NATURALO">     2</i>
   <i type="logical" name="L2ORDER"> F  </i>
   <i type="logical" name="LMP2LT"> F  </i>
   <i type="logical" name="LUSEW"> F  </i>
   <i name="ENCUTGW">     -2.00000000</i>
   <i name="ENCUTGWSOFT">     -2.00000000</i>
   <i name="ENCUTLF">     -1.00000000</i>
   <i type="int" name="LMAXMP2">    -1</i>
   <i name="SCISSOR">      0.00000000</i>
   <i type="int" name="NOMEGA">     0</i>
   <i type="int" name="NOMEGAR">     0</i>
   <i type="int" name="NBANDSGW">    -1</i>
   <i type="int" name="NBANDSO">    -1</i>
   <i type="int" name="NBANDSV">    -1</i>
   <i type="int" name="NELM">   200</i>
   <i type="int" name="NELMHF">     1</i>
   <i type="int" name="DIM">     3</i>
   <i type="int" name="ANTIRES">     0</i>
   <i name="OMEGAMAX">    -30.00000000</i>
   <i name="OMEGAMIN">    -30.00000000</i>
   <i name="OMEGATL">   -200.00000000</i>
   <i type="int" name="OMEGAGRID">   140</i>
   <i name="CSHIFT">     -0.10000000</i>
   <i type="logical" name="SELFENERGY"> F  </i>
   <i type="logical" name="LSPECTRAL"> F  </i>
   <i type="logical" name="LSPECTRALGW"> F  </i>
   <i type="logical" name="LSINGLES"> F  </i>
   <i type="logical" name="LFERMIGW"> F  </i>
   <i type="logical" name="ODDONLYGW"> F  </i>
   <i type="logical" name="EVENONLYGW"> F  </i>
   <i type="int" name="NKREDLFX">     1</i>
   <i type="int" name="NKREDLFY">     1</i>
   <i type="int" name="NKREDLFZ">     1</i>
   <i type="int" name="MAXMEM">  2800</i>
   <i type="int" name="TELESCOPE">     0</i>
   <i type="int" name="TAUPAR">     1</i>
   <i type="int" name="OMEGAPAR">    -1</i>
   <i name="LAMBDA">      1.00000000</i>
  </separator>
  <separator name="External order field" >
   <i name="OFIELD_KAPPA">      0.00000000</i>
   <v name="OFIELD_K">      0.00000000      0.00000000      0.00000000</v>
   <i name="OFIELD_Q6_NEAR">      0.00000000</i>
   <i name="OFIELD_Q6_FAR">      0.00000000</i>
   <i name="OFIELD_A">      0.00000000</i>
  </separator>
  <separator name="solvation model" >
   <i type="logical" name="LSOL"> F  </i>
  </separator>
 </parameters>
 <atominfo>
  <atoms>      72 </atoms>
  <types>       4 </types>
  <array name="atoms" >
   <dimension dim="1">ion</dimension>
   <field type="string">element</field>
   <field type="int">atomtype</field>
   <set>
    <rc><c>H </c><c>   1</c></rc>
    <rc><c>H </c><c>   1</c></rc>
    <rc><c>H </c><c>   1</c></rc>
    <rc><c>H </c><c>   1</c></rc>
    <rc><c>H </c><c>   1</c></rc>
    <rc><c>H </c><c>   1</c></rc>
    <rc><c>H </c><c>   1</c></rc>
    <rc><c>H </c><c>   1</c></rc>
    <rc><c>H </c><c>   1</c></rc>
    <rc><c>H </c><c>   1</c></rc>
    <rc><c>H </c><c>   1</c></rc>
    <rc><c>H </c><c>   1</c></rc>
    <rc><c>H </c><c>   1</c></rc>
    <rc><c>H </c><c>   1</c></rc>
    <rc><c>H </c><c>   1</c></rc>
    <rc><c>H </c><c>   1</c></rc>
    <rc><c>H </c><c>   1</c></rc>
    <rc><c>H </c><c>   1</c></rc>
    <rc><c>H </c><c>   1</c></rc>
    <rc><c>H </c><c>   1</c></rc>
    <rc><c>H </c><c>   1</c></rc>
    <rc><c>C </c><c>   2</c></rc>
    <rc><c>C </c><c>   2</c></rc>
    <rc><c>C </c><c>   2</c></rc>
    <rc><c>C </c><c>   2</c></rc>
    <rc><c>C </c><c>   2</c></rc>
    <rc><c>C </c><c>   2</c></rc>
    <rc><c>C </c><c>   2</c></rc>
    <rc><c>C </c><c>   2</c></rc>
    <rc><c>C </c><c>   2</c></rc>
    <rc><c>C </c><c>   2</c></rc>
    <rc><c>C </c><c>   2</c></rc>
    <rc><c>C </c><c>   2</c></rc>
    <rc><c>C </c><c>   2</c></rc>
    <rc><c>C </c><c>   2</c></rc>
    <rc><c>C </c><c>   2</c></rc>
    <rc><c>C </c><c>   2</c></rc>
    <rc><c>C </c><c>   2</c></rc>
    <rc><c>C </c><c>   2</c></rc>
    <rc><c>C </c><c>   2</c></rc>
    <rc><c>C </c><c>   2</c></rc>
    <rc><c>C </c><c>   2</c></rc>
    <rc><c>C </c><c>   2</c></rc>
    <rc><c>C </c><c>   2</c></rc>
    <rc><c>C </c><c>   2</c></rc>
    <rc><c>C </c><c>   2</c></rc>
    <rc><c>C </c><c>   2</c></rc>
    <rc><c>C </c><c>   2</c></rc>
    <rc><c>C </c><c>   2</c></rc>
    <rc><c>C </c><c>   2</c></rc>
    <rc><c>C </c><c>   2</c></rc>
    <rc><c>N </c><c>   3</c></rc>
    <rc><c>N </c><c>   3</c></rc>
    <rc><c>N </c><c>   3</c></rc>
    <rc><c>N </c><c>   3</c></rc>
    <rc><c>N </c><c>   3</c></rc>
    <rc><c>N </c><c>   3</c></rc>
    <rc><c>N </c><c>   3</c></rc>
    <rc><c>N </c><c>   3</c></rc>
    <rc><c>N </c><c>   3</c></rc>
    <rc><c>N </c><c>   3</c></rc>
    <rc><c>N </c><c>   3</c></rc>
    <rc><c>N </c><c>   3</c></rc>
    <rc><c>N </c><c>   3</c></rc>
    <rc><c>N </c><c>   3</c></rc>
    <rc><c>N </c><c>   3</c></rc>
    <rc><c>O </c><c>   4</c></rc>
    <rc><c>O </c><c>   4</c></rc>
    <rc><c>O </c><c>   4</c></rc>
    <rc><c>O </c><c>   4</c></rc>
    <rc><c>O </c><c>   4</c></rc>
    <rc><c>O </c><c>   4</c></rc>
   </set>
  </array>
  <array name="atomtypes" >
   <dimension dim="1">type</dimension>
   <field type="int">atomspertype</field>
   <field type="string">element</field>
   <field>mass</field>
   <field>valence</field>
   <field type="string">pseudopotential</field>
   <set>
    <rc><c>  21</c><c>H </c><c>      1.00000000</c><c>      1.00000000</c><c>  PAW_PBE H 15Jun2001                   </c></rc>
    <rc><c>  30</c><c>C </c><c>     12.01100000</c><c>      4.00000000</c><c>  PAW_PBE C 08Apr2002                   </c></rc>
    <rc><c>  15</c><c>N </c><c>     14.00100000</c><c>      5.00000000</c><c>  PAW_PBE N 08Apr2002                   </c></rc>
    <rc><c>   6</c><c>O </c><c>     16.00000000</c><c>      6.00000000</c><c>  PAW_PBE O 08Apr2002                   </c></rc>
   </set>
  </array>
 </atominfo>
 <structure name="initialpos" >
  <crystal>
   <varray name="basis" >
    <v>      21.92435372      -0.03991702       0.00000000 </v>
    <v>     -10.99675723      19.01495347       0.00000000 </v>
    <v>       0.00000000       0.00000000      20.00000000 </v>
   </varray>
   <i name="volume">   8329.03215926 </i>
   <varray name="rec_basis" >
    <v>       0.04565946       0.02640585       0.00000000 </v>
    <v>       0.00009585       0.05264562       0.00000000 </v>
    <v>       0.00000000       0.00000000       0.05000000 </v>
   </varray>
  </crystal>
  <varray name="positions" >
   <v>       0.24730439       0.71100258       0.54959379 </v>
   <v>       0.29607784       0.54433218       0.54806910 </v>
   <v>       0.46351878       0.76031635       0.54825500 </v>
   <v>       0.75169047       0.29321764       0.43369942 </v>
   <v>       0.71299396       0.46685938       0.43442407 </v>
   <v>       0.53862054       0.25401508       0.43332277 </v>
   <v>       0.92196846       0.36788304       0.39393508 </v>
   <v>       0.00470946       0.37967910       0.40842924 </v>
   <v>       0.83910717       0.36963065       0.47738816 </v>
   <v>       0.63800102       0.56103152       0.39234216 </v>
   <v>       0.62706945       0.63234998       0.40617777 </v>
   <v>       0.63671277       0.47799332       0.47621852 </v>
   <v>       0.44368722       0.08162585       0.39007311 </v>
   <v>       0.37303253       0.99859055       0.40412163 </v>
   <v>       0.52655716       0.16596928       0.47421258 </v>
   <v>       0.03383736       0.60701404       0.56657635 </v>
   <v>       0.15374111       0.63161288       0.54991404 </v>
   <v>       0.39921730       0.43523291       0.56559606 </v>
   <v>       0.37493870       0.53031572       0.54755512 </v>
   <v>       0.57234214       0.97510111       0.56641948 </v>
   <v>       0.47778805       0.85397528       0.54922206 </v>
   <v>       0.38727483       0.65181862       0.54963638 </v>
   <v>       0.40685884       0.72318836       0.55016593 </v>
   <v>       0.35592500       0.74360143       0.55061347 </v>
   <v>       0.28437694       0.69157058       0.55089734 </v>
   <v>       0.31572938       0.60087323       0.54999680 </v>
   <v>       0.44685900       0.63646892       0.54367314 </v>
   <v>       0.37124467       0.81854976       0.54561442 </v>
   <v>       0.61894540       0.36163414       0.43588529 </v>
   <v>       0.59564772       0.28945626       0.43505929 </v>
   <v>       0.64391023       0.26557781       0.43533277 </v>
   <v>       0.71628875       0.31466827       0.43529441 </v>
   <v>       0.69133561       0.40994161       0.43571539 </v>
   <v>       0.56258567       0.38169336       0.43832358 </v>
   <v>       0.62356248       0.18913288       0.43719216 </v>
   <v>       0.93297033       0.46477746       0.48098647 </v>
   <v>       0.98298569       0.44473166       0.46197935 </v>
   <v>       0.54149563       0.47622231       0.48021845 </v>
   <v>       0.56180844       0.54616017       0.46065555 </v>
   <v>       0.52921974       0.07312608       0.47889576 </v>
   <v>       0.45943761       0.02209702       0.45952089 </v>
   <v>       0.26375170       0.62020790       0.55032471 </v>
   <v>       0.18861985       0.56045585       0.54482546 </v>
   <v>       0.74040398       0.38686289       0.43603348 </v>
   <v>       0.81708210       0.44318416       0.43839700 </v>
   <v>       0.01887652       0.56002233       0.53645107 </v>
   <v>       0.06787410       0.53912995       0.51922074 </v>
   <v>       0.44633263       0.46713291       0.53539599 </v>
   <v>       0.46751835       0.53694975       0.51763529 </v>
   <v>       0.53986934       0.98896487       0.53567939 </v>
   <v>       0.47012708       0.93900289       0.51831328 </v>
   <v>       0.05019891       0.48252169       0.48157865 </v>
   <v>       0.96396012       0.38515885       0.42500594 </v>
   <v>       0.86145218       0.42080309       0.46292287 </v>
   <v>       0.52431659       0.57577071       0.47994395 </v>
   <v>       0.62142398       0.58630014       0.42334700 </v>
   <v>       0.58527984       0.44870737       0.46232482 </v>
   <v>       0.43066004       0.95529957       0.47984200 </v>
   <v>       0.41866245       0.03987412       0.42132711 </v>
   <v>       0.55599439       0.14420962       0.46016960 </v>
   <v>       0.95156833       0.52192588       0.51737130 </v>
   <v>       0.13832345       0.58075942       0.53923941 </v>
   <v>       0.48426931       0.43779600       0.51674854 </v>
   <v>       0.42600411       0.56584623       0.53711842 </v>
   <v>       0.56836985       0.05589748       0.51598725 </v>
   <v>       0.44190874       0.86892035       0.53890191 </v>
   <v>       0.17471530       0.49883695       0.54391666 </v>
   <v>       0.50875181       0.68414577       0.54331311 </v>
   <v>       0.32341837       0.83235232       0.54600489 </v>
   <v>       0.83726057       0.50390735       0.42035968 </v>
   <v>       0.50157696       0.34072802       0.42082159 </v>
   <v>       0.66480519       0.16948119       0.42011430 </v>
  </varray>
 </structure>
 <calculation>
  <scstep>
   <time name="dav">  223.06  225.40</time>
   <time name="total">  223.19  225.54</time>
   <energy>
    <i name="alphaZ">     34.17227476 </i>
    <i name="ewald">  27872.86945602 </i>
    <i name="hartreedc"> -37166.02617664 </i>
    <i name="XCdc">    948.21435628 </i>
    <i name="pawpsdc">  24157.90507076 </i>
    <i name="pawaedc"> -24212.42350093 </i>
    <i name="eentropy">     -0.00000000 </i>
    <i name="bandstr">  -3385.19866676 </i>
    <i name="atom">  11238.82902708 </i>
    <i name="e_fr_energy">   -511.65815942 </i>
    <i name="e_wo_entrp">   -511.65815942 </i>
    <i name="e_0_energy">   -511.65815942 </i>
   </energy>
  </scstep>
  <scstep>
   <time name="dav">  255.39  258.08</time>
   <time name="total">  255.39  258.08</time>
   <energy>
    <i name="e_fr_energy">   -512.33461222 </i>
    <i name="e_wo_entrp">   -512.33461222 </i>
    <i name="e_0_energy">   -512.33461222 </i>
   </energy>
  </scstep>
  <scstep>
   <time name="dav">  277.48  280.42</time>
   <time name="total">  277.48  280.42</time>
   <energy>
    <i name="e_fr_energy">   -512.35133065 </i>
    <i name="e_wo_entrp">   -512.35133065 </i>
    <i name="e_0_energy">   -512.35133065 </i>
   </energy>
  </scstep>
  <scstep>
   <time name="dav">  251.32  254.03</time>
   <time name="total">  251.32  254.04</time>
   <energy>
    <i name="e_fr_energy">   -512.35166164 </i>
    <i name="e_wo_entrp">   -512.35166164 </i>
    <i name="e_0_energy">   -512.35166164 </i>
   </energy>
  </scstep>
  <scstep>
   <time name="dav">  238.80  241.43</time>
   <time name="total">  238.80  241.43</time>
   <energy>
    <i name="e_fr_energy">   -512.35167738 </i>
    <i name="e_wo_entrp">   -512.35167738 </i>
    <i name="e_0_energy">   -512.35167738 </i>
   </energy>
  </scstep>
  <scstep>
   <time name="dav">  204.14  206.33</time>
   <time name="total">  204.14  206.34</time>
   <energy>
    <i name="alphaZ">     34.17227476 </i>
    <i name="ewald">  27872.86945602 </i>
    <i name="hartreedc"> -37166.02617664 </i>
    <i name="XCdc">    948.21435628 </i>
    <i name="pawpsdc">  24157.90507076 </i>
    <i name="pawaedc"> -24212.42350093 </i>
    <i name="eentropy">     -0.00000000 </i>
    <i name="bandstr">  -3385.89218547 </i>
    <i name="atom">  11238.82902708 </i>
    <i name="e_fr_energy">   -512.35167813 </i>
    <i name="e_wo_entrp">   -512.35167813 </i>
    <i name="e_0_energy">   -512.35167813 </i>
   </energy>
  </scstep>
  <structure>
   <crystal>
    <varray name="basis" >
     <v>      21.92435372      -0.03991702       0.00000000 </v>
     <v>     -10.99675723      19.01495347       0.00000000 </v>
     <v>       0.00000000       0.00000000      20.00000000 </v>
    </varray>
    <i name="volume">   8329.03215926 </i>
    <varray name="rec_basis" >
     <v>       0.04565946       0.02640585       0.00000000 </v>
     <v>       0.00009585       0.05264562       0.00000000 </v>
     <v>       0.00000000       0.00000000       0.05000000 </v>
    </varray>
   </crystal>
   <varray name="positions" >
    <v>       0.24730439       0.71100258       0.54959379 </v>
    <v>       0.29607784       0.54433218       0.54806910 </v>
    <v>       0.46351878       0.76031635       0.54825500 </v>
    <v>       0.75169047       0.29321764       0.43369942 </v>
    <v>       0.71299396       0.46685938       0.43442407 </v>
    <v>       0.53862054       0.25401508       0.43332277 </v>
    <v>       0.92196846       0.36788304       0.39393508 </v>
    <v>       0.00470946       0.37967910       0.40842924 </v>
    <v>       0.83910717       0.36963065       0.47738816 </v>
    <v>       0.63800102       0.56103152       0.39234216 </v>
    <v>       0.62706945       0.63234998       0.40617777 </v>
    <v>       0.63671277       0.47799332       0.47621852 </v>
    <v>       0.44368722       0.08162585       0.39007311 </v>
    <v>       0.37303253       0.99859055       0.40412163 </v>
    <v>       0.52655716       0.16596928       0.47421258 </v>
    <v>       0.03383736       0.60701404       0.56657635 </v>
    <v>       0.15374111       0.63161288       0.54991404 </v>
    <v>       0.39921730       0.43523291       0.56559606 </v>
    <v>       0.37493870       0.53031572       0.54755512 </v>
    <v>       0.57234214       0.97510111       0.56641948 </v>
    <v>       0.47778805       0.85397528       0.54922206 </v>
    <v>       0.38727483       0.65181862       0.54963638 </v>
    <v>       0.40685884       0.72318836       0.55016593 </v>
    <v>       0.35592500       0.74360143       0.55061347 </v>
    <v>       0.28437694       0.69157058       0.55089734 </v>
    <v>       0.31572938       0.60087323       0.54999680 </v>
    <v>       0.44685900       0.63646892       0.54367314 </v>
    <v>       0.37124467       0.81854976       0.54561442 </v>
    <v>       0.61894540       0.36163414       0.43588529 </v>
    <v>       0.59564772       0.28945626       0.43505929 </v>
    <v>       0.64391023       0.26557781       0.43533277 </v>
    <v>       0.71628875       0.31466827       0.43529441 </v>
    <v>       0.69133561       0.40994161       0.43571539 </v>
    <v>       0.56258567       0.38169336       0.43832358 </v>
    <v>       0.62356248       0.18913288       0.43719216 </v>
    <v>       0.93297033       0.46477746       0.48098647 </v>
    <v>       0.98298569       0.44473166       0.46197935 </v>
    <v>       0.54149563       0.47622231       0.48021845 </v>
    <v>       0.56180844       0.54616017       0.46065555 </v>
    <v>       0.52921974       0.07312608       0.47889576 </v>
    <v>       0.45943761       0.02209702       0.45952089 </v>
    <v>       0.26375170       0.62020790       0.55032471 </v>
    <v>       0.18861985       0.56045585       0.54482546 </v>
    <v>       0.74040398       0.38686289       0.43603348 </v>
    <v>       0.81708210       0.44318416       0.43839700 </v>
    <v>       0.01887652       0.56002233       0.53645107 </v>
    <v>       0.06787410       0.53912995       0.51922074 </v>
    <v>       0.44633263       0.46713291       0.53539599 </v>
    <v>       0.46751835       0.53694975       0.51763529 </v>
    <v>       0.53986934       0.98896487       0.53567939 </v>
    <v>       0.47012708       0.93900289       0.51831328 </v>
    <v>       0.05019891       0.48252169       0.48157865 </v>
    <v>       0.96396012       0.38515885       0.42500594 </v>
    <v>       0.86145218       0.42080309       0.46292287 </v>
    <v>       0.52431659       0.57577071       0.47994395 </v>
    <v>       0.62142398       0.58630014       0.42334700 </v>
    <v>       0.58527984       0.44870737       0.46232482 </v>
    <v>       0.43066004       0.95529957       0.47984200 </v>
    <v>       0.41866245       0.03987412       0.42132711 </v>
    <v>       0.55599439       0.14420962       0.46016960 </v>
    <v>       0.95156833       0.52192588       0.51737130 </v>
    <v>       0.13832345       0.58075942       0.53923941 </v>
    <v>       0.48426931       0.43779600       0.51674854 </v>
    <v>       0.42600411       0.56584623       0.53711842 </v>
    <v>       0.56836985       0.05589748       0.51598725 </v>
    <v>       0.44190874       0.86892035       0.53890191 </v>
    <v>       0.17471530       0.49883695       0.54391666 </v>
    <v>       0.50875181       0.68414577       0.54331311 </v>
    <v>       0.32341837       0.83235232       0.54600489 </v>
    <v>       0.83726057       0.50390735       0.42035968 </v>
    <v>       0.50157696       0.34072802       0.42082159 </v>
    <v>       0.66480519       0.16948119       0.42011430 </v>
   </varray>
  </structure>
  <varray name="forces" >
   <v>      -0.00170988       0.00060403       0.00032401 </v>
   <v>       0.00043762      -0.00218213      -0.00408492 </v>
   <v>       0.00003472       0.00198311      -0.00279410 </v>
   <v>       0.00195171       0.00062856       0.00200334 </v>
   <v>      -0.00043068      -0.00060292       0.00300154 </v>
   <v>      -0.00214995      -0.00113445       0.00169642 </v>
   <v>      -0.00504886       0.00042918      -0.00208905 </v>
   <v>      -0.00694004      -0.00001203      -0.00008691 </v>
   <v>      -0.00007433      -0.00012460       0.00005803 </v>
   <v>       0.00184850       0.00119532       0.00012663 </v>
   <v>       0.00191020      -0.00378474       0.00166754 </v>
   <v>      -0.00306497      -0.00346401       0.00138437 </v>
   <v>      -0.00260828      -0.00116817       0.00049970 </v>
   <v>      -0.00114399       0.00307744       0.00269688 </v>
   <v>       0.00057990       0.00044414       0.00027199 </v>
   <v>       0.00104498      -0.00546259      -0.00313835 </v>
   <v>      -0.00164586      -0.00555957       0.00163460 </v>
   <v>       0.00283033       0.00167113      -0.00127416 </v>
   <v>       0.00459895       0.00164901       0.00354527 </v>
   <v>       0.00339492      -0.00017097      -0.00127044 </v>
   <v>      -0.00078594       0.00293355      -0.00384294 </v>
   <v>       0.00002994       0.00538989      -0.00166242 </v>
   <v>       0.00180393       0.00194049      -0.00130938 </v>
   <v>      -0.00384443      -0.00305573      -0.00207237 </v>
   <v>       0.00043582       0.00273828       0.00006942 </v>
   <v>      -0.00127653      -0.00116444      -0.00138362 </v>
   <v>       0.00388567       0.00046880      -0.00278472 </v>
   <v>       0.00501297      -0.00411925      -0.00102738 </v>
   <v>       0.00283951       0.00143304       0.00159247 </v>
   <v>       0.00062961      -0.00135969       0.00249722 </v>
   <v>       0.00056740       0.00063200       0.00284104 </v>
   <v>       0.00124007      -0.00014949      -0.00001938 </v>
   <v>      -0.00096174       0.00270098       0.00204419 </v>
   <v>      -0.00021489       0.00178929       0.00213712 </v>
   <v>       0.00641298      -0.00038466      -0.00107535 </v>
   <v>       0.00648582      -0.00092565       0.00469940 </v>
   <v>      -0.00357232       0.00026293      -0.00300749 </v>
   <v>      -0.00688151       0.00066611       0.00110957 </v>
   <v>       0.00346489       0.00121856      -0.00147902 </v>
   <v>      -0.00058288       0.00302917      -0.00252015 </v>
   <v>      -0.00031148      -0.00285262       0.00354759 </v>
   <v>       0.00092835       0.00148810      -0.00229179 </v>
   <v>       0.00295527      -0.00047207      -0.00272789 </v>
   <v>      -0.00314073      -0.00188402       0.00085107 </v>
   <v>      -0.00234982       0.00464226      -0.00075750 </v>
   <v>       0.00146205      -0.00079035       0.00162327 </v>
   <v>      -0.00434691       0.00378956      -0.00327231 </v>
   <v>       0.00322574      -0.00591470      -0.00010651 </v>
   <v>       0.00373653       0.00005953      -0.00005535 </v>
   <v>      -0.00071791      -0.00078670       0.00022197 </v>
   <v>      -0.00281063       0.00156710      -0.00298266 </v>
   <v>      -0.00326631       0.00310314       0.00659604 </v>
   <v>       0.00304966      -0.00829773       0.00000312 </v>
   <v>       0.00469592      -0.00491154       0.00184493 </v>
   <v>      -0.00016061      -0.00420263       0.00112858 </v>
   <v>      -0.00099348       0.00210000      -0.00148029 </v>
   <v>       0.00063253       0.00286346      -0.00068158 </v>
   <v>      -0.00119539       0.00437730       0.00007527 </v>
   <v>      -0.00210856      -0.00580454      -0.00114410 </v>
   <v>      -0.00781516      -0.00199438       0.00207053 </v>
   <v>       0.00390251       0.00433170      -0.00317219 </v>
   <v>       0.00109527      -0.00335482      -0.00159772 </v>
   <v>       0.00189309       0.00610877      -0.00066990 </v>
   <v>      -0.00299651      -0.00284918       0.00070597 </v>
   <v>      -0.00337930       0.00262313      -0.00028407 </v>
   <v>       0.00135826      -0.00139474       0.00307846 </v>
   <v>      -0.00171579       0.00234650      -0.00066130 </v>
   <v>       0.00207873       0.00422912      -0.00469658 </v>
   <v>      -0.00407695       0.00176605      -0.00174135 </v>
   <v>       0.00006889       0.00131756       0.00164680 </v>
   <v>       0.00451670      -0.00316632       0.00376119 </v>
   <v>      -0.00271730      -0.00009687       0.00218967 </v>
  </varray>
  <varray name="stress" >
   <v>       0.05335679      -0.00642720       0.00112028 </v>
   <v>      -0.00642720       0.05415353      -0.01021860 </v>
   <v>       0.00112028      -0.01021860      -0.24966412 </v>
  </varray>
  <energy>
   <i name="e_fr_energy">   -513.76946795 </i>
   <i name="e_wo_entrp">   -513.76946795 </i>
   <i name="e_0_energy">     -0.00000000 </i>
  </energy>
  <time name="totalsc"> 1708.59 1727.80</time>
  <eigenvalues>
   <array>
    <dimension dim="1">band</dimension>
    <dimension dim="2">kpoint</dimension>
    <dimension dim="3">spin</dimension>
    <field>eigene</field>
    <field>occ</field>
    <set>
     <set comment="spin 1">
      <set comment="kpoint 1">
       <r>  -26.0599    1.0000 </r>
       <r>  -26.0459    1.0000 </r>
       <r>  -26.0416    1.0000 </r>
       <r>  -25.9509    1.0000 </r>
       <r>  -25.9359    1.0000 </r>
       <r>  -25.9341    1.0000 </r>
       <r>  -24.9481    1.0000 </r>
       <r>  -24.9461    1.0000 </r>
       <r>  -24.9429    1.0000 </r>
       <r>  -23.7726    1.0000 </r>
       <r>  -23.7700    1.0000 </r>
       <r>  -23.7630    1.0000 </r>
       <r>  -23.3192    1.0000 </r>
       <r>  -23.3188    1.0000 </r>
       <r>  -23.3146    1.0000 </r>
       <r>  -22.8588    1.0000 </r>
       <r>  -22.8438    1.0000 </r>
       <r>  -22.8393    1.0000 </r>
       <r>  -22.0020    1.0000 </r>
       <r>  -21.8179    1.0000 </r>
       <r>  -21.7648    1.0000 </r>
       <r>  -21.7624    1.0000 </r>
       <r>  -21.6032    1.0000 </r>
       <r>  -19.5391    1.0000 </r>
       <r>  -19.5367    1.0000 </r>
       <r>  -19.3907    1.0000 </r>
       <r>  -19.3898    1.0000 </r>
       <r>  -18.7260    1.0000 </r>
       <r>  -18.4511    1.0000 </r>
       <r>  -18.4488    1.0000 </r>
       <r>  -17.2840    1.0000 </r>
       <r>  -17.1847    1.0000 </r>
       <r>  -17.1775    1.0000 </r>
       <r>  -16.3082    1.0000 </r>
       <r>  -16.3059    1.0000 </r>
       <r>  -16.2984    1.0000 </r>
       <r>  -16.1177    1.0000 </r>
       <r>  -16.1164    1.0000 </r>
       <r>  -15.6392    1.0000 </r>
       <r>  -15.5496    1.0000 </r>
       <r>  -15.5458    1.0000 </r>
       <r>  -14.8545    1.0000 </r>
       <r>  -14.8507    1.0000 </r>
       <r>  -14.8472    1.0000 </r>
       <r>  -14.4584    1.0000 </r>
       <r>  -14.1794    1.0000 </r>
       <r>  -14.1783    1.0000 </r>
       <r>  -14.0779    1.0000 </r>
       <r>  -13.7623    1.0000 </r>
       <r>  -13.7588    1.0000 </r>
       <r>  -13.5861    1.0000 </r>
       <r>  -13.5817    1.0000 </r>
       <r>  -13.4672    1.0000 </r>
       <r>  -13.1839    1.0000 </r>
       <r>  -13.0042    1.0000 </r>
       <r>  -12.9997    1.0000 </r>
       <r>  -12.9365    1.0000 </r>
       <r>  -12.1940    1.0000 </r>
       <r>  -12.1281    1.0000 </r>
       <r>  -12.0598    1.0000 </r>
       <r>  -12.0581    1.0000 </r>
       <r>  -11.9936    1.0000 </r>
       <r>  -11.7534    1.0000 </r>
       <r>  -11.7525    1.0000 </r>
       <r>  -11.6872    1.0000 </r>
       <r>  -11.4501    1.0000 </r>
       <r>  -11.4477    1.0000 </r>
       <r>  -11.4377    1.0000 </r>
       <r>  -11.3234    1.0000 </r>
       <r>  -11.3203    1.0000 </r>
       <r>  -11.2033    1.0000 </r>
       <r>  -10.9098    1.0000 </r>
       <r>  -10.8487    1.0000 </r>
       <r>  -10.8376    1.0000 </r>
       <r>  -10.7305    1.0000 </r>
       <r>  -10.5377    1.0000 </r>
       <r>  -10.5346    1.0000 </r>
       <r>  -10.4833    1.0000 </r>
       <r>  -10.2729    1.0000 </r>
       <r>  -10.2699    1.0000 </r>
       <r>  -10.2079    1.0000 </r>
       <r>  -10.0927    1.0000 </r>
       <r>  -10.0873    1.0000 </r>
       <r>   -9.9372    1.0000 </r>
       <r>   -9.9365    1.0000 </r>
       <r>   -9.8970    1.0000 </r>
       <r>   -9.8831    1.0000 </r>
       <r>   -9.8809    1.0000 </r>
       <r>   -9.8076    1.0000 </r>
       <r>   -9.1366    1.0000 </r>
       <r>   -8.9621    1.0000 </r>
       <r>   -8.9596    1.0000 </r>
       <r>   -8.9228    1.0000 </r>
       <r>   -8.9211    1.0000 </r>
       <r>   -8.8725    1.0000 </r>
       <r>   -8.5455    1.0000 </r>
       <r>   -8.5441    1.0000 </r>
       <r>   -8.5242    1.0000 </r>
       <r>   -8.3043    1.0000 </r>
       <r>   -8.2995    1.0000 </r>
       <r>   -8.0912    1.0000 </r>
       <r>   -7.0831    1.0000 </r>
       <r>   -7.0807    1.0000 </r>
       <r>   -7.0218    1.0000 </r>
       <r>   -6.8208    1.0000 </r>
       <r>   -6.8142    1.0000 </r>
       <r>   -6.7603    1.0000 </r>
       <r>   -6.7582    1.0000 </r>
       <r>   -6.7522    1.0000 </r>
       <r>   -6.6588    1.0000 </r>
       <r>   -6.6574    1.0000 </r>
       <r>   -6.4418    1.0000 </r>
       <r>   -6.4084    1.0000 </r>
       <r>   -6.4061    1.0000 </r>
       <r>   -6.2995    1.0000 </r>
       <r>   -6.2323    1.0000 </r>
       <r>   -6.2302    1.0000 </r>
       <r>   -5.9895    1.0000 </r>
       <r>   -5.7821    1.0000 </r>
       <r>   -5.7777    1.0000 </r>
       <r>   -5.5324    1.0000 </r>
       <r>   -5.3889    1.0000 </r>
       <r>   -5.3843    1.0000 </r>
       <r>   -5.1176    1.0000 </r>
       <r>   -5.1040    1.0000 </r>
       <r>   -5.1036    1.0000 </r>
       <r>   -2.6836    0.0000 </r>
       <r>   -2.6796    0.0000 </r>
       <r>   -2.4135    0.0000 </r>
       <r>   -2.4041    0.0000 </r>
       <r>   -2.1523    0.0000 </r>
       <r>   -1.7799    0.0000 </r>
       <r>   -1.7782    0.0000 </r>
       <r>   -1.4631    0.0000 </r>
       <r>   -1.1317    0.0000 </r>
       <r>   -0.9906    0.0000 </r>
       <r>   -0.9880    0.0000 </r>
       <r>   -0.6394    0.0000 </r>
       <r>   -0.4775    0.0000 </r>
       <r>   -0.3832    0.0000 </r>
       <r>   -0.3820    0.0000 </r>
       <r>   -0.3603    0.0000 </r>
       <r>   -0.0877    0.0000 </r>
       <r>   -0.0840    0.0000 </r>
       <r>    0.1624    0.0000 </r>
       <r>    0.4228    0.0000 </r>
       <r>    0.4244    0.0000 </r>
       <r>    0.4734    0.0000 </r>
       <r>    0.5241    0.0000 </r>
       <r>    0.5467    0.0000 </r>
       <r>    0.5487    0.0000 </r>
       <r>    0.5540    0.0000 </r>
       <r>    0.6187    0.0000 </r>
       <r>    0.6871    0.0000 </r>
       <r>    0.6884    0.0000 </r>
       <r>    0.7464    0.0000 </r>
       <r>    0.7508    0.0000 </r>
       <r>    0.8810    0.0000 </r>
       <r>    0.8953    0.0000 </r>
       <r>    0.9010    0.0000 </r>
       <r>    0.9360    0.0000 </r>
       <r>    0.9382    0.0000 </r>
       <r>    0.9558    0.0000 </r>
       <r>    1.0126    0.0000 </r>
       <r>    1.0233    0.0000 </r>
       <r>    1.0258    0.0000 </r>
       <r>    1.0552    0.0000 </r>
       <r>    1.0946    0.0000 </r>
       <r>    1.0959    0.0000 </r>
       <r>    1.1449    0.0000 </r>
       <r>    1.1764    0.0000 </r>
       <r>    1.2527    0.0000 </r>
       <r>    1.2558    0.0000 </r>
       <r>    1.3099    0.0000 </r>
       <r>    1.4673    0.0000 </r>
       <r>    1.4699    0.0000 </r>
      </set>
      <set comment="kpoint 2">
       <r>  -26.0599    1.0000 </r>
       <r>  -26.0459    1.0000 </r>
       <r>  -26.0416    1.0000 </r>
       <r>  -25.9509    1.0000 </r>
       <r>  -25.9359    1.0000 </r>
       <r>  -25.9341    1.0000 </r>
       <r>  -24.9481    1.0000 </r>
       <r>  -24.9461    1.0000 </r>
       <r>  -24.9429    1.0000 </r>
       <r>  -23.7726    1.0000 </r>
       <r>  -23.7700    1.0000 </r>
       <r>  -23.7630    1.0000 </r>
       <r>  -23.3192    1.0000 </r>
       <r>  -23.3188    1.0000 </r>
       <r>  -23.3146    1.0000 </r>
       <r>  -22.8588    1.0000 </r>
       <r>  -22.8438    1.0000 </r>
       <r>  -22.8393    1.0000 </r>
       <r>  -22.0019    1.0000 </r>
       <r>  -21.8190    1.0000 </r>
       <r>  -21.7644    1.0000 </r>
       <r>  -21.7618    1.0000 </r>
       <r>  -21.6034    1.0000 </r>
       <r>  -19.5390    1.0000 </r>
       <r>  -19.5367    1.0000 </r>
       <r>  -19.3910    1.0000 </r>
       <r>  -19.3898    1.0000 </r>
       <r>  -18.7255    1.0000 </r>
       <r>  -18.4515    1.0000 </r>
       <r>  -18.4488    1.0000 </r>
       <r>  -17.2838    1.0000 </r>
       <r>  -17.1847    1.0000 </r>
       <r>  -17.1776    1.0000 </r>
       <r>  -16.3082    1.0000 </r>
       <r>  -16.3059    1.0000 </r>
       <r>  -16.2985    1.0000 </r>
       <r>  -16.1176    1.0000 </r>
       <r>  -16.1161    1.0000 </r>
       <r>  -15.6436    1.0000 </r>
       <r>  -15.5480    1.0000 </r>
       <r>  -15.5430    1.0000 </r>
       <r>  -14.8634    1.0000 </r>
       <r>  -14.8477    1.0000 </r>
       <r>  -14.8416    1.0000 </r>
       <r>  -14.4583    1.0000 </r>
       <r>  -14.1795    1.0000 </r>
       <r>  -14.1783    1.0000 </r>
       <r>  -14.0779    1.0000 </r>
       <r>  -13.7623    1.0000 </r>
       <r>  -13.7588    1.0000 </r>
       <r>  -13.5864    1.0000 </r>
       <r>  -13.5826    1.0000 </r>
       <r>  -13.4658    1.0000 </r>
       <r>  -13.1841    1.0000 </r>
       <r>  -13.0043    1.0000 </r>
       <r>  -13.0002    1.0000 </r>
       <r>  -12.9360    1.0000 </r>
       <r>  -12.1939    1.0000 </r>
       <r>  -12.1282    1.0000 </r>
       <r>  -12.0598    1.0000 </r>
       <r>  -12.0581    1.0000 </r>
       <r>  -11.9936    1.0000 </r>
       <r>  -11.7534    1.0000 </r>
       <r>  -11.7525    1.0000 </r>
       <r>  -11.6872    1.0000 </r>
       <r>  -11.4501    1.0000 </r>
       <r>  -11.4477    1.0000 </r>
       <r>  -11.4377    1.0000 </r>
       <r>  -11.3233    1.0000 </r>
       <r>  -11.3202    1.0000 </r>
       <r>  -11.2034    1.0000 </r>
       <r>  -10.9098    1.0000 </r>
       <r>  -10.8488    1.0000 </r>
       <r>  -10.8376    1.0000 </r>
       <r>  -10.7304    1.0000 </r>
       <r>  -10.5381    1.0000 </r>
       <r>  -10.5346    1.0000 </r>
       <r>  -10.4829    1.0000 </r>
       <r>  -10.2726    1.0000 </r>
       <r>  -10.2699    1.0000 </r>
       <r>  -10.2081    1.0000 </r>
       <r>  -10.0926    1.0000 </r>
       <r>  -10.0872    1.0000 </r>
       <r>   -9.9376    1.0000 </r>
       <r>   -9.9365    1.0000 </r>
       <r>   -9.8969    1.0000 </r>
       <r>   -9.8831    1.0000 </r>
       <r>   -9.8811    1.0000 </r>
       <r>   -9.8073    1.0000 </r>
       <r>   -9.1364    1.0000 </r>
       <r>   -8.9621    1.0000 </r>
       <r>   -8.9596    1.0000 </r>
       <r>   -8.9228    1.0000 </r>
       <r>   -8.9211    1.0000 </r>
       <r>   -8.8728    1.0000 </r>
       <r>   -8.5455    1.0000 </r>
       <r>   -8.5441    1.0000 </r>
       <r>   -8.5242    1.0000 </r>
       <r>   -8.3040    1.0000 </r>
       <r>   -8.2995    1.0000 </r>
       <r>   -8.0914    1.0000 </r>
       <r>   -7.0830    1.0000 </r>
       <r>   -7.0807    1.0000 </r>
       <r>   -7.0219    1.0000 </r>
       <r>   -6.8208    1.0000 </r>
       <r>   -6.8142    1.0000 </r>
       <r>   -6.7609    1.0000 </r>
       <r>   -6.7585    1.0000 </r>
       <r>   -6.7511    1.0000 </r>
       <r>   -6.6589    1.0000 </r>
       <r>   -6.6574    1.0000 </r>
       <r>   -6.4418    1.0000 </r>
       <r>   -6.4084    1.0000 </r>
       <r>   -6.4061    1.0000 </r>
       <r>   -6.2994    1.0000 </r>
       <r>   -6.2324    1.0000 </r>
       <r>   -6.2303    1.0000 </r>
       <r>   -5.9893    1.0000 </r>
       <r>   -5.7821    1.0000 </r>
       <r>   -5.7781    1.0000 </r>
       <r>   -5.5321    1.0000 </r>
       <r>   -5.3889    1.0000 </r>
       <r>   -5.3844    1.0000 </r>
       <r>   -5.1176    1.0000 </r>
       <r>   -5.1040    1.0000 </r>
       <r>   -5.1036    1.0000 </r>
       <r>   -2.6835    0.0000 </r>
       <r>   -2.6796    0.0000 </r>
       <r>   -2.4136    0.0000 </r>
       <r>   -2.4046    0.0000 </r>
       <r>   -2.1514    0.0000 </r>
       <r>   -1.7799    0.0000 </r>
       <r>   -1.7786    0.0000 </r>
       <r>   -1.4631    0.0000 </r>
       <r>   -1.1333    0.0000 </r>
       <r>   -0.9904    0.0000 </r>
       <r>   -0.9862    0.0000 </r>
       <r>   -0.6393    0.0000 </r>
       <r>   -0.4778    0.0000 </r>
       <r>   -0.3842    0.0000 </r>
       <r>   -0.3831    0.0000 </r>
       <r>   -0.3584    0.0000 </r>
       <r>   -0.0876    0.0000 </r>
       <r>   -0.0839    0.0000 </r>
       <r>    0.1626    0.0000 </r>
       <r>    0.4225    0.0000 </r>
       <r>    0.4240    0.0000 </r>
       <r>    0.4738    0.0000 </r>
       <r>    0.5240    0.0000 </r>
       <r>    0.5442    0.0000 </r>
       <r>    0.5495    0.0000 </r>
       <r>    0.5564    0.0000 </r>
       <r>    0.6187    0.0000 </r>
       <r>    0.6872    0.0000 </r>
       <r>    0.6885    0.0000 </r>
       <r>    0.7464    0.0000 </r>
       <r>    0.7502    0.0000 </r>
       <r>    0.8804    0.0000 </r>
       <r>    0.8952    0.0000 </r>
       <r>    0.9008    0.0000 </r>
       <r>    0.9339    0.0000 </r>
       <r>    0.9377    0.0000 </r>
       <r>    0.9577    0.0000 </r>
       <r>    1.0119    0.0000 </r>
       <r>    1.0233    0.0000 </r>
       <r>    1.0265    0.0000 </r>
       <r>    1.0559    0.0000 </r>
       <r>    1.0952    0.0000 </r>
       <r>    1.0956    0.0000 </r>
       <r>    1.1466    0.0000 </r>
       <r>    1.1778    0.0000 </r>
       <r>    1.2522    0.0000 </r>
       <r>    1.2550    0.0000 </r>
       <r>    1.3099    0.0000 </r>
       <r>    1.4657    0.0000 </r>
       <r>    1.4678    0.0000 </r>
      </set>
      <set comment="kpoint 3">
       <r>  -26.0599    1.0000 </r>
       <r>  -26.0459    1.0000 </r>
       <r>  -26.0416    1.0000 </r>
       <r>  -25.9509    1.0000 </r>
       <r>  -25.9359    1.0000 </r>
       <r>  -25.9341    1.0000 </r>
       <r>  -24.9481    1.0000 </r>
       <r>  -24.9461    1.0000 </r>
       <r>  -24.9429    1.0000 </r>
       <r>  -23.7726    1.0000 </r>
       <r>  -23.7700    1.0000 </r>
       <r>  -23.7630    1.0000 </r>
       <r>  -23.3192    1.0000 </r>
       <r>  -23.3188    1.0000 </r>
       <r>  -23.3146    1.0000 </r>
       <r>  -22.8587    1.0000 </r>
       <r>  -22.8438    1.0000 </r>
       <r>  -22.8394    1.0000 </r>
       <r>  -22.0014    1.0000 </r>
       <r>  -21.8218    1.0000 </r>
       <r>  -21.7639    1.0000 </r>
       <r>  -21.7594    1.0000 </r>
       <r>  -21.6038    1.0000 </r>
       <r>  -19.5387    1.0000 </r>
       <r>  -19.5365    1.0000 </r>
       <r>  -19.3918    1.0000 </r>
       <r>  -19.3899    1.0000 </r>
       <r>  -18.7241    1.0000 </r>
       <r>  -18.4527    1.0000 </r>
       <r>  -18.4488    1.0000 </r>
       <r>  -17.2833    1.0000 </r>
       <r>  -17.1850    1.0000 </r>
       <r>  -17.1777    1.0000 </r>
       <r>  -16.3082    1.0000 </r>
       <r>  -16.3060    1.0000 </r>
       <r>  -16.2985    1.0000 </r>
       <r>  -16.1174    1.0000 </r>
       <r>  -16.1150    1.0000 </r>
       <r>  -15.6548    1.0000 </r>
       <r>  -15.5475    1.0000 </r>
       <r>  -15.5323    1.0000 </r>
       <r>  -14.8745    1.0000 </r>
       <r>  -14.8476    1.0000 </r>
       <r>  -14.8318    1.0000 </r>
       <r>  -14.4580    1.0000 </r>
       <r>  -14.1799    1.0000 </r>
       <r>  -14.1784    1.0000 </r>
       <r>  -14.0778    1.0000 </r>
       <r>  -13.7623    1.0000 </r>
       <r>  -13.7588    1.0000 </r>
       <r>  -13.5884    1.0000 </r>
       <r>  -13.5840    1.0000 </r>
       <r>  -13.4616    1.0000 </r>
       <r>  -13.1844    1.0000 </r>
       <r>  -13.0050    1.0000 </r>
       <r>  -13.0014    1.0000 </r>
       <r>  -12.9345    1.0000 </r>
       <r>  -12.1938    1.0000 </r>
       <r>  -12.1285    1.0000 </r>
       <r>  -12.0597    1.0000 </r>
       <r>  -12.0581    1.0000 </r>
       <r>  -11.9937    1.0000 </r>
       <r>  -11.7533    1.0000 </r>
       <r>  -11.7524    1.0000 </r>
       <r>  -11.6872    1.0000 </r>
       <r>  -11.4502    1.0000 </r>
       <r>  -11.4478    1.0000 </r>
       <r>  -11.4379    1.0000 </r>
       <r>  -11.3229    1.0000 </r>
       <r>  -11.3200    1.0000 </r>
       <r>  -11.2037    1.0000 </r>
       <r>  -10.9097    1.0000 </r>
       <r>  -10.8489    1.0000 </r>
       <r>  -10.8376    1.0000 </r>
       <r>  -10.7300    1.0000 </r>
       <r>  -10.5395    1.0000 </r>
       <r>  -10.5347    1.0000 </r>
       <r>  -10.4821    1.0000 </r>
       <r>  -10.2719    1.0000 </r>
       <r>  -10.2696    1.0000 </r>
       <r>  -10.2087    1.0000 </r>
       <r>  -10.0924    1.0000 </r>
       <r>  -10.0868    1.0000 </r>
       <r>   -9.9387    1.0000 </r>
       <r>   -9.9365    1.0000 </r>
       <r>   -9.8968    1.0000 </r>
       <r>   -9.8832    1.0000 </r>
       <r>   -9.8815    1.0000 </r>
       <r>   -9.8066    1.0000 </r>
       <r>   -9.1357    1.0000 </r>
       <r>   -8.9621    1.0000 </r>
       <r>   -8.9596    1.0000 </r>
       <r>   -8.9228    1.0000 </r>
       <r>   -8.9211    1.0000 </r>
       <r>   -8.8735    1.0000 </r>
       <r>   -8.5456    1.0000 </r>
       <r>   -8.5441    1.0000 </r>
       <r>   -8.5244    1.0000 </r>
       <r>   -8.3031    1.0000 </r>
       <r>   -8.2995    1.0000 </r>
       <r>   -8.0919    1.0000 </r>
       <r>   -7.0828    1.0000 </r>
       <r>   -7.0806    1.0000 </r>
       <r>   -7.0222    1.0000 </r>
       <r>   -6.8210    1.0000 </r>
       <r>   -6.8143    1.0000 </r>
       <r>   -6.7626    1.0000 </r>
       <r>   -6.7585    1.0000 </r>
       <r>   -6.7488    1.0000 </r>
       <r>   -6.6592    1.0000 </r>
       <r>   -6.6575    1.0000 </r>
       <r>   -6.4418    1.0000 </r>
       <r>   -6.4084    1.0000 </r>
       <r>   -6.4061    1.0000 </r>
       <r>   -6.2992    1.0000 </r>
       <r>   -6.2327    1.0000 </r>
       <r>   -6.2305    1.0000 </r>
       <r>   -5.9884    1.0000 </r>
       <r>   -5.7822    1.0000 </r>
       <r>   -5.7792    1.0000 </r>
       <r>   -5.5310    1.0000 </r>
       <r>   -5.3890    1.0000 </r>
       <r>   -5.3849    1.0000 </r>
       <r>   -5.1176    1.0000 </r>
       <r>   -5.1040    1.0000 </r>
       <r>   -5.1036    1.0000 </r>
       <r>   -2.6831    0.0000 </r>
       <r>   -2.6795    0.0000 </r>
       <r>   -2.4143    0.0000 </r>
       <r>   -2.4060    0.0000 </r>
       <r>   -2.1487    0.0000 </r>
       <r>   -1.7802    0.0000 </r>
       <r>   -1.7794    0.0000 </r>
       <r>   -1.4631    0.0000 </r>
       <r>   -1.1378    0.0000 </r>
       <r>   -0.9902    0.0000 </r>
       <r>   -0.9806    0.0000 </r>
       <r>   -0.6390    0.0000 </r>
       <r>   -0.4789    0.0000 </r>
       <r>   -0.3894    0.0000 </r>
       <r>   -0.3832    0.0000 </r>
       <r>   -0.3541    0.0000 </r>
       <r>   -0.0874    0.0000 </r>
       <r>   -0.0837    0.0000 </r>
       <r>    0.1630    0.0000 </r>
       <r>    0.4210    0.0000 </r>
       <r>    0.4232    0.0000 </r>
       <r>    0.4749    0.0000 </r>
       <r>    0.5238    0.0000 </r>
       <r>    0.5405    0.0000 </r>
       <r>    0.5508    0.0000 </r>
       <r>    0.5610    0.0000 </r>
       <r>    0.6187    0.0000 </r>
       <r>    0.6873    0.0000 </r>
       <r>    0.6889    0.0000 </r>
       <r>    0.7461    0.0000 </r>
       <r>    0.7486    0.0000 </r>
       <r>    0.8788    0.0000 </r>
       <r>    0.8945    0.0000 </r>
       <r>    0.9005    0.0000 </r>
       <r>    0.9293    0.0000 </r>
       <r>    0.9368    0.0000 </r>
       <r>    0.9618    0.0000 </r>
       <r>    1.0102    0.0000 </r>
       <r>    1.0233    0.0000 </r>
       <r>    1.0285    0.0000 </r>
       <r>    1.0576    0.0000 </r>
       <r>    1.0951    0.0000 </r>
       <r>    1.0975    0.0000 </r>
       <r>    1.1515    0.0000 </r>
       <r>    1.1821    0.0000 </r>
       <r>    1.2493    0.0000 </r>
       <r>    1.2541    0.0000 </r>
       <r>    1.3099    0.0000 </r>
       <r>    1.4581    0.0000 </r>
       <r>    1.4656    0.0000 </r>
      </set>
      <set comment="kpoint 4">
       <r>  -26.0599    1.0000 </r>
       <r>  -26.0459    1.0000 </r>
       <r>  -26.0416    1.0000 </r>
       <r>  -25.9509    1.0000 </r>
       <r>  -25.9359    1.0000 </r>
       <r>  -25.9341    1.0000 </r>
       <r>  -24.9481    1.0000 </r>
       <r>  -24.9461    1.0000 </r>
       <r>  -24.9429    1.0000 </r>
       <r>  -23.7726    1.0000 </r>
       <r>  -23.7700    1.0000 </r>
       <r>  -23.7630    1.0000 </r>
       <r>  -23.3192    1.0000 </r>
       <r>  -23.3188    1.0000 </r>
       <r>  -23.3146    1.0000 </r>
       <r>  -22.8586    1.0000 </r>
       <r>  -22.8439    1.0000 </r>
       <r>  -22.8394    1.0000 </r>
       <r>  -22.0006    1.0000 </r>
       <r>  -21.8261    1.0000 </r>
       <r>  -21.7638    1.0000 </r>
       <r>  -21.7554    1.0000 </r>
       <r>  -21.6044    1.0000 </r>
       <r>  -19.5383    1.0000 </r>
       <r>  -19.5360    1.0000 </r>
       <r>  -19.3932    1.0000 </r>
       <r>  -19.3899    1.0000 </r>
       <r>  -18.7218    1.0000 </r>
       <r>  -18.4547    1.0000 </r>
       <r>  -18.4488    1.0000 </r>
       <r>  -17.2823    1.0000 </r>
       <r>  -17.1854    1.0000 </r>
       <r>  -17.1779    1.0000 </r>
       <r>  -16.3082    1.0000 </r>
       <r>  -16.3060    1.0000 </r>
       <r>  -16.2987    1.0000 </r>
       <r>  -16.1172    1.0000 </r>
       <r>  -16.1131    1.0000 </r>
       <r>  -15.6698    1.0000 </r>
       <r>  -15.5475    1.0000 </r>
       <r>  -15.5173    1.0000 </r>
       <r>  -14.8860    1.0000 </r>
       <r>  -14.8475    1.0000 </r>
       <r>  -14.8223    1.0000 </r>
       <r>  -14.4576    1.0000 </r>
       <r>  -14.1805    1.0000 </r>
       <r>  -14.1784    1.0000 </r>
       <r>  -14.0776    1.0000 </r>
       <r>  -13.7622    1.0000 </r>
       <r>  -13.7587    1.0000 </r>
       <r>  -13.5931    1.0000 </r>
       <r>  -13.5845    1.0000 </r>
       <r>  -13.4552    1.0000 </r>
       <r>  -13.1851    1.0000 </r>
       <r>  -13.0070    1.0000 </r>
       <r>  -13.0024    1.0000 </r>
       <r>  -12.9323    1.0000 </r>
       <r>  -12.1936    1.0000 </r>
       <r>  -12.1289    1.0000 </r>
       <r>  -12.0596    1.0000 </r>
       <r>  -12.0580    1.0000 </r>
       <r>  -11.9939    1.0000 </r>
       <r>  -11.7533    1.0000 </r>
       <r>  -11.7523    1.0000 </r>
       <r>  -11.6872    1.0000 </r>
       <r>  -11.4504    1.0000 </r>
       <r>  -11.4479    1.0000 </r>
       <r>  -11.4381    1.0000 </r>
       <r>  -11.3223    1.0000 </r>
       <r>  -11.3195    1.0000 </r>
       <r>  -11.2043    1.0000 </r>
       <r>  -10.9096    1.0000 </r>
       <r>  -10.8492    1.0000 </r>
       <r>  -10.8377    1.0000 </r>
       <r>  -10.7294    1.0000 </r>
       <r>  -10.5417    1.0000 </r>
       <r>  -10.5347    1.0000 </r>
       <r>  -10.4806    1.0000 </r>
       <r>  -10.2712    1.0000 </r>
       <r>  -10.2687    1.0000 </r>
       <r>  -10.2095    1.0000 </r>
       <r>  -10.0921    1.0000 </r>
       <r>  -10.0862    1.0000 </r>
       <r>   -9.9406    1.0000 </r>
       <r>   -9.9364    1.0000 </r>
       <r>   -9.8965    1.0000 </r>
       <r>   -9.8836    1.0000 </r>
       <r>   -9.8821    1.0000 </r>
       <r>   -9.8055    1.0000 </r>
       <r>   -9.1346    1.0000 </r>
       <r>   -8.9621    1.0000 </r>
       <r>   -8.9596    1.0000 </r>
       <r>   -8.9228    1.0000 </r>
       <r>   -8.9212    1.0000 </r>
       <r>   -8.8746    1.0000 </r>
       <r>   -8.5456    1.0000 </r>
       <r>   -8.5441    1.0000 </r>
       <r>   -8.5247    1.0000 </r>
       <r>   -8.3016    1.0000 </r>
       <r>   -8.2994    1.0000 </r>
       <r>   -8.0928    1.0000 </r>
       <r>   -7.0825    1.0000 </r>
       <r>   -7.0804    1.0000 </r>
       <r>   -7.0226    1.0000 </r>
       <r>   -6.8213    1.0000 </r>
       <r>   -6.8144    1.0000 </r>
       <r>   -6.7648    1.0000 </r>
       <r>   -6.7582    1.0000 </r>
       <r>   -6.7460    1.0000 </r>
       <r>   -6.6596    1.0000 </r>
       <r>   -6.6576    1.0000 </r>
       <r>   -6.4417    1.0000 </r>
       <r>   -6.4084    1.0000 </r>
       <r>   -6.4061    1.0000 </r>
       <r>   -6.2988    1.0000 </r>
       <r>   -6.2332    1.0000 </r>
       <r>   -6.2307    1.0000 </r>
       <r>   -5.9871    1.0000 </r>
       <r>   -5.7826    1.0000 </r>
       <r>   -5.7808    1.0000 </r>
       <r>   -5.5292    1.0000 </r>
       <r>   -5.3891    1.0000 </r>
       <r>   -5.3856    1.0000 </r>
       <r>   -5.1174    1.0000 </r>
       <r>   -5.1041    1.0000 </r>
       <r>   -5.1037    1.0000 </r>
       <r>   -2.6827    0.0000 </r>
       <r>   -2.6792    0.0000 </r>
       <r>   -2.4157    0.0000 </r>
       <r>   -2.4077    0.0000 </r>
       <r>   -2.1444    0.0000 </r>
       <r>   -1.7816    0.0000 </r>
       <r>   -1.7798    0.0000 </r>
       <r>   -1.4630    0.0000 </r>
       <r>   -1.1446    0.0000 </r>
       <r>   -0.9902    0.0000 </r>
       <r>   -0.9719    0.0000 </r>
       <r>   -0.6384    0.0000 </r>
       <r>   -0.4807    0.0000 </r>
       <r>   -0.3960    0.0000 </r>
       <r>   -0.3832    0.0000 </r>
       <r>   -0.3490    0.0000 </r>
       <r>   -0.0871    0.0000 </r>
       <r>   -0.0834    0.0000 </r>
       <r>    0.1638    0.0000 </r>
       <r>    0.4182    0.0000 </r>
       <r>    0.4227    0.0000 </r>
       <r>    0.4766    0.0000 </r>
       <r>    0.5235    0.0000 </r>
       <r>    0.5370    0.0000 </r>
       <r>    0.5527    0.0000 </r>
       <r>    0.5662    0.0000 </r>
       <r>    0.6187    0.0000 </r>
       <r>    0.6872    0.0000 </r>
       <r>    0.6897    0.0000 </r>
       <r>    0.7449    0.0000 </r>
       <r>    0.7471    0.0000 </r>
       <r>    0.8762    0.0000 </r>
       <r>    0.8928    0.0000 </r>
       <r>    0.8998    0.0000 </r>
       <r>    0.9241    0.0000 </r>
       <r>    0.9357    0.0000 </r>
       <r>    0.9663    0.0000 </r>
       <r>    1.0076    0.0000 </r>
       <r>    1.0234    0.0000 </r>
       <r>    1.0316    0.0000 </r>
       <r>    1.0593    0.0000 </r>
       <r>    1.0960    0.0000 </r>
       <r>    1.1010    0.0000 </r>
       <r>    1.1586    0.0000 </r>
       <r>    1.1885    0.0000 </r>
       <r>    1.2439    0.0000 </r>
       <r>    1.2539    0.0000 </r>
       <r>    1.3096    0.0000 </r>
       <r>    1.4474    0.0000 </r>
       <r>    1.4623    0.0000 </r>
      </set>
      <set comment="kpoint 5">
       <r>  -26.0599    1.0000 </r>
       <r>  -26.0459    1.0000 </r>
       <r>  -26.0416    1.0000 </r>
       <r>  -25.9509    1.0000 </r>
       <r>  -25.9359    1.0000 </r>
       <r>  -25.9341    1.0000 </r>
       <r>  -24.9481    1.0000 </r>
       <r>  -24.9461    1.0000 </r>
       <r>  -24.9429    1.0000 </r>
       <r>  -23.7726    1.0000 </r>
       <r>  -23.7700    1.0000 </r>
       <r>  -23.7630    1.0000 </r>
       <r>  -23.3192    1.0000 </r>
       <r>  -23.3188    1.0000 </r>
       <r>  -23.3146    1.0000 </r>
       <r>  -22.8585    1.0000 </r>
       <r>  -22.8440    1.0000 </r>
       <r>  -22.8395    1.0000 </r>
       <r>  -21.9995    1.0000 </r>
       <r>  -21.8313    1.0000 </r>
       <r>  -21.7637    1.0000 </r>
       <r>  -21.7504    1.0000 </r>
       <r>  -21.6054    1.0000 </r>
       <r>  -19.5380    1.0000 </r>
       <r>  -19.5352    1.0000 </r>
       <r>  -19.3951    1.0000 </r>
       <r>  -19.3899    1.0000 </r>
       <r>  -18.7187    1.0000 </r>
       <r>  -18.4575    1.0000 </r>
       <r>  -18.4488    1.0000 </r>
       <r>  -17.2810    1.0000 </r>
       <r>  -17.1859    1.0000 </r>
       <r>  -17.1782    1.0000 </r>
       <r>  -16.3083    1.0000 </r>
       <r>  -16.3061    1.0000 </r>
       <r>  -16.2988    1.0000 </r>
       <r>  -16.1170    1.0000 </r>
       <r>  -16.1102    1.0000 </r>
       <r>  -15.6866    1.0000 </r>
       <r>  -15.5476    1.0000 </r>
       <r>  -15.5003    1.0000 </r>
       <r>  -14.8978    1.0000 </r>
       <r>  -14.8473    1.0000 </r>
       <r>  -14.8132    1.0000 </r>
       <r>  -14.4571    1.0000 </r>
       <r>  -14.1813    1.0000 </r>
       <r>  -14.1785    1.0000 </r>
       <r>  -14.0773    1.0000 </r>
       <r>  -13.7621    1.0000 </r>
       <r>  -13.7586    1.0000 </r>
       <r>  -13.5995    1.0000 </r>
       <r>  -13.5846    1.0000 </r>
       <r>  -13.4472    1.0000 </r>
       <r>  -13.1860    1.0000 </r>
       <r>  -13.0104    1.0000 </r>
       <r>  -13.0028    1.0000 </r>
       <r>  -12.9296    1.0000 </r>
       <r>  -12.1933    1.0000 </r>
       <r>  -12.1295    1.0000 </r>
       <r>  -12.0594    1.0000 </r>
       <r>  -12.0580    1.0000 </r>
       <r>  -11.9941    1.0000 </r>
       <r>  -11.7532    1.0000 </r>
       <r>  -11.7521    1.0000 </r>
       <r>  -11.6871    1.0000 </r>
       <r>  -11.4506    1.0000 </r>
       <r>  -11.4480    1.0000 </r>
       <r>  -11.4383    1.0000 </r>
       <r>  -11.3217    1.0000 </r>
       <r>  -11.3188    1.0000 </r>
       <r>  -11.2051    1.0000 </r>
       <r>  -10.9094    1.0000 </r>
       <r>  -10.8495    1.0000 </r>
       <r>  -10.8378    1.0000 </r>
       <r>  -10.7285    1.0000 </r>
       <r>  -10.5447    1.0000 </r>
       <r>  -10.5347    1.0000 </r>
       <r>  -10.4788    1.0000 </r>
       <r>  -10.2709    1.0000 </r>
       <r>  -10.2669    1.0000 </r>
       <r>  -10.2106    1.0000 </r>
       <r>  -10.0918    1.0000 </r>
       <r>  -10.0854    1.0000 </r>
       <r>   -9.9432    1.0000 </r>
       <r>   -9.9364    1.0000 </r>
       <r>   -9.8962    1.0000 </r>
       <r>   -9.8843    1.0000 </r>
       <r>   -9.8824    1.0000 </r>
       <r>   -9.8040    1.0000 </r>
       <r>   -9.1331    1.0000 </r>
       <r>   -8.9621    1.0000 </r>
       <r>   -8.9595    1.0000 </r>
       <r>   -8.9229    1.0000 </r>
       <r>   -8.9212    1.0000 </r>
       <r>   -8.8762    1.0000 </r>
       <r>   -8.5457    1.0000 </r>
       <r>   -8.5441    1.0000 </r>
       <r>   -8.5251    1.0000 </r>
       <r>   -8.2999    1.0000 </r>
       <r>   -8.2990    1.0000 </r>
       <r>   -8.0941    1.0000 </r>
       <r>   -7.0822    1.0000 </r>
       <r>   -7.0800    1.0000 </r>
       <r>   -7.0231    1.0000 </r>
       <r>   -6.8216    1.0000 </r>
       <r>   -6.8145    1.0000 </r>
       <r>   -6.7670    1.0000 </r>
       <r>   -6.7576    1.0000 </r>
       <r>   -6.7430    1.0000 </r>
       <r>   -6.6603    1.0000 </r>
[...]
       <r>   -27.4364     0.0000     0.0000 </r>
       <r>   -27.3355     0.0000     0.0000 </r>
       <r>   -27.2345     0.0000     0.0000 </r>
       <r>   -27.1336     0.0000     0.0000 </r>
       <r>   -27.0326     0.0000     0.0000 </r>
       <r>   -26.9317     0.0000     0.0000 </r>
       <r>   -26.8308     0.0000     0.0000 </r>
       <r>   -26.7298     0.0000     0.0000 </r>
       <r>   -26.6289     0.0000     0.0000 </r>
       <r>   -26.5279     0.0000     0.0000 </r>
       <r>   -26.4270     0.0000     0.0000 </r>
       <r>   -26.3260     0.0000     0.0000 </r>
       <r>   -26.2251     0.0000     0.0000 </r>
       <r>   -26.1242     0.0000     0.0000 </r>
       <r>   -26.0232    59.3380     5.9897 </r>
       <r>   -25.9223    58.0589    11.8606 </r>
       <r>   -25.8213     0.0000    12.0000 </r>
       <r>   -25.7204     0.0000    12.0000 </r>
       <r>   -25.6194     0.0000    12.0000 </r>
       <r>   -25.5185     0.0000    12.0000 </r>
       <r>   -25.4176     0.0000    12.0000 </r>
       <r>   -25.3166     0.0000    12.0000 </r>
       <r>   -25.2157     0.0000    12.0000 </r>
       <r>   -25.1147     0.0000    12.0000 </r>
       <r>   -25.0138     0.0000    12.0000 </r>
       <r>   -24.9128    59.4393    18.0000 </r>
       <r>   -24.8119     0.0000    18.0000 </r>
       <r>   -24.7110     0.0000    18.0000 </r>
       <r>   -24.6100     0.0000    18.0000 </r>
       <r>   -24.5091     0.0000    18.0000 </r>
       <r>   -24.4081     0.0000    18.0000 </r>
       <r>   -24.3072     0.0000    18.0000 </r>
       <r>   -24.2062     0.0000    18.0000 </r>
       <r>   -24.1053     0.0000    18.0000 </r>
       <r>   -24.0044     0.0000    18.0000 </r>
       <r>   -23.9034     0.0000    18.0000 </r>
       <r>   -23.8025     0.0002    18.0000 </r>
       <r>   -23.7015    59.4394    24.0000 </r>
       <r>   -23.6006     0.0000    24.0000 </r>
       <r>   -23.4996     0.0000    24.0000 </r>
       <r>   -23.3987     0.0000    24.0000 </r>
       <r>   -23.2978    59.2160    29.9774 </r>
       <r>   -23.1968     0.0000    30.0000 </r>
       <r>   -23.0959     0.0000    30.0000 </r>
       <r>   -22.9949     0.0000    30.0000 </r>
       <r>   -22.8940     0.0000    30.0000 </r>
       <r>   -22.7930    59.4396    36.0000 </r>
       <r>   -22.6921     0.0000    36.0000 </r>
       <r>   -22.5912     0.0000    36.0000 </r>
       <r>   -22.4902     0.0000    36.0000 </r>
       <r>   -22.3893     0.0000    36.0000 </r>
       <r>   -22.2883     0.0000    36.0000 </r>
       <r>   -22.1874     0.0000    36.0000 </r>
       <r>   -22.0864     0.0000    36.0000 </r>
       <r>   -21.9855     6.7268    36.6790 </r>
       <r>   -21.8846    17.6097    39.1777 </r>
       <r>   -21.7836     5.9987    40.0056 </r>
       <r>   -21.6827    10.9937    43.1099 </r>
       <r>   -21.5817    21.7908    45.9997 </r>
       <r>   -21.4808     0.0000    46.0000 </r>
       <r>   -21.3798     0.0000    46.0000 </r>
       <r>   -21.2789     0.0000    46.0000 </r>
       <r>   -21.1780     0.0000    46.0000 </r>
       <r>   -21.0770     0.0000    46.0000 </r>
       <r>   -20.9761     0.0000    46.0000 </r>
       <r>   -20.8751     0.0000    46.0000 </r>
       <r>   -20.7742     0.0000    46.0000 </r>
       <r>   -20.6732     0.0000    46.0000 </r>
       <r>   -20.5723     0.0000    46.0000 </r>
       <r>   -20.4714     0.0000    46.0000 </r>
       <r>   -20.3704     0.0000    46.0000 </r>
       <r>   -20.2695     0.0000    46.0000 </r>
       <r>   -20.1685     0.0000    46.0000 </r>
       <r>   -20.0676     0.0000    46.0000 </r>
       <r>   -19.9666     0.0000    46.0000 </r>
       <r>   -19.8657     0.0000    46.0000 </r>
       <r>   -19.7648     0.0000    46.0000 </r>
       <r>   -19.6638     0.0000    46.0000 </r>
       <r>   -19.5629     0.0048    46.0005 </r>
       <r>   -19.4619    40.2987    50.0684 </r>
       <r>   -19.3610    30.0493    54.0000 </r>
       <r>   -19.2600     0.0000    54.0000 </r>
       <r>   -19.1591     0.0000    54.0000 </r>
       <r>   -19.0582     0.0000    54.0000 </r>
       <r>   -18.9572     0.0000    54.0000 </r>
       <r>   -18.8563     0.0000    54.0000 </r>
       <r>   -18.7553     0.0000    54.0000 </r>
       <r>   -18.6544     8.8117    54.8895 </r>
       <r>   -18.5534    13.7659    56.4563 </r>
       <r>   -18.4525    15.0401    58.4849 </r>
       <r>   -18.3516     0.0000    60.0000 </r>
       <r>   -18.2506     0.0000    60.0000 </r>
       <r>   -18.1497     0.0000    60.0000 </r>
       <r>   -18.0487     0.0000    60.0000 </r>
       <r>   -17.9478     0.0000    60.0000 </r>
       <r>   -17.8468     0.0000    60.0000 </r>
       <r>   -17.7459     0.0000    60.0000 </r>
       <r>   -17.6450     0.0000    60.0000 </r>
       <r>   -17.5440     0.0000    60.0000 </r>
       <r>   -17.4431     0.0000    60.0000 </r>
       <r>   -17.3421     0.0000    60.0000 </r>
       <r>   -17.2412    14.4016    61.4537 </r>
       <r>   -17.1402    38.6338    66.0000 </r>
       <r>   -17.0393     0.0000    66.0000 </r>
       <r>   -16.9384     0.0000    66.0000 </r>
       <r>   -16.8374     0.0000    66.0000 </r>
       <r>   -16.7365     0.0000    66.0000 </r>
       <r>   -16.6355     0.0000    66.0000 </r>
       <r>   -16.5346     0.0000    66.0000 </r>
       <r>   -16.4336     0.0000    66.0000 </r>
       <r>   -16.3327     0.0116    66.0012 </r>
       <r>   -16.2318    59.4280    72.0000 </r>
       <r>   -16.1308     0.3062    72.0309 </r>
       <r>   -16.0299     7.2558    75.0325 </r>
       <r>   -15.9289     8.2836    76.3362 </r>
       <r>   -15.8280     6.1329    77.2191 </r>
       <r>   -15.7270     2.7454    77.5771 </r>
       <r>   -15.6261     3.6080    77.9976 </r>
       <r>   -15.5252    21.6889    80.1893 </r>
       <r>   -15.4242     2.7457    80.5438 </r>
       <r>   -15.3233     2.9421    80.9303 </r>
       <r>   -15.2223     9.5761    82.0000 </r>
       <r>   -15.1214     0.0000    82.0000 </r>
       <r>   -15.0204    10.8344    83.0937 </r>
       <r>   -14.9195     4.0226    83.6061 </r>
       <r>   -14.8186    25.1939    86.2432 </r>
       <r>   -14.7176    16.1734    87.9993 </r>
       <r>   -14.6167     0.0000    88.0000 </r>
       <r>   -14.5157     0.0000    88.0000 </r>
       <r>   -14.4148    19.8131    90.0000 </r>
       <r>   -14.3138     0.0000    90.0000 </r>
       <r>   -14.2129     0.0758    90.0077 </r>
       <r>   -14.1120    28.0670    94.0000 </r>
       <r>   -14.0110    19.8132    96.0000 </r>
       <r>   -13.9101     0.0000    96.0000 </r>
       <r>   -13.8091     0.0000    96.0000 </r>
       <r>   -13.7082    39.6475   100.0021 </r>
       <r>   -13.6072    13.0498   101.6508 </r>
       <r>   -13.5063    20.7948   104.0000 </r>
       <r>   -13.4054     5.2841   104.5334 </r>
       <r>   -13.3044     8.7255   105.5141 </r>
       <r>   -13.2035    12.4600   107.2577 </r>
       <r>   -13.1025     0.0000   108.0000 </r>
       <r>   -13.0016    29.7165   110.9997 </r>
       <r>   -12.9006    11.1810   113.1286 </r>
       <r>   -12.7997     0.0000   114.0000 </r>
       <r>   -12.6988     0.0000   114.0000 </r>
       <r>   -12.5978     0.0000   114.0000 </r>
       <r>   -12.4969     0.0000   114.0000 </r>
       <r>   -12.3959     0.0000   114.0000 </r>
       <r>   -12.2950     0.0000   114.0000 </r>
       <r>   -12.1940     4.5938   114.4637 </r>
       <r>   -12.0931    19.8132   118.0000 </r>
       <r>   -11.9922    54.0704   123.4580 </r>
       <r>   -11.8912     0.0000   124.0000 </r>
       <r>   -11.7903     0.0000   124.0000 </r>
       <r>   -11.6893    46.9660   128.7409 </r>
       <r>   -11.5884     0.0000   130.0000 </r>
       <r>   -11.4874     0.0000   130.0000 </r>
       <r>   -11.3865    59.4396   136.0000 </r>
       <r>   -11.2856    37.1688   139.7519 </r>
       <r>   -11.1846    19.8016   141.9988 </r>
       <r>   -11.0837     0.0000   142.0000 </r>
       <r>   -10.9827     0.0000   142.0000 </r>
       <r>   -10.8818    19.8105   143.9997 </r>
       <r>   -10.7808    39.6236   148.0000 </r>
       <r>   -10.6799    19.8062   149.9993 </r>
       <r>   -10.5790    12.0552   151.2169 </r>
       <r>   -10.4780    27.5648   154.2825 </r>
       <r>   -10.3771    11.8866   156.0000 </r>
       <r>   -10.2761     6.6071   156.6669 </r>
       <r>   -10.1752    24.2532   161.9818 </r>
       <r>   -10.0742    27.1773   164.7434 </r>
       <r>    -9.9733    12.8483   167.2969 </r>
       <r>    -9.8724    81.7414   175.8179 </r>
       <r>    -9.7714    19.2538   177.9435 </r>
       <r>    -9.6705     0.0000   178.0000 </r>
       <r>    -9.5695     0.0000   178.0000 </r>
       <r>    -9.4686     0.0000   178.0000 </r>
       <r>    -9.3676     0.0000   178.0000 </r>
       <r>    -9.2667     0.0000   178.0000 </r>
       <r>    -9.1658     0.0000   178.0000 </r>
       <r>    -9.0648    19.8131   180.0000 </r>
       <r>    -8.9639    12.9310   181.3053 </r>
       <r>    -8.8629    59.2266   189.9785 </r>
       <r>    -8.7620     0.0000   190.0000 </r>
       <r>    -8.6610     0.0000   190.0000 </r>
       <r>    -8.5601     0.8187   190.0826 </r>
       <r>    -8.4592    19.8128   196.0000 </r>
       <r>    -8.3582     0.0000   196.0000 </r>
       <r>    -8.2573    30.9526   199.1244 </r>
       <r>    -8.1563     0.0004   200.0000 </r>
       <r>    -8.0554    19.8128   202.0000 </r>
       <r>    -7.9544     0.0000   202.0000 </r>
       <r>    -7.8535     0.0000   202.0000 </r>
       <r>    -7.7526     0.0000   202.0000 </r>
       <r>    -7.6516     0.0000   202.0000 </r>
       <r>    -7.5507     0.0000   202.0000 </r>
       <r>    -7.4497     0.0000   202.0000 </r>
       <r>    -7.3488     0.0000   202.0000 </r>
       <r>    -7.2478     0.0000   202.0000 </r>
       <r>    -7.1469     0.0000   202.0000 </r>
       <r>    -7.0460    42.5612   206.2962 </r>
       <r>    -6.9450     4.2902   208.0000 </r>
       <r>    -6.8441     0.2147   208.0217 </r>
       <r>    -6.7431    60.8647   215.6776 </r>
       <r>    -6.6422    52.3757   221.9870 </r>
       <r>    -6.5412     0.0000   222.0000 </r>
       <r>    -6.4403    10.2822   223.0379 </r>
       <r>    -6.3394    39.6263   228.0000 </r>
       <r>    -6.2384    38.5730   231.8937 </r>
       <r>    -6.1375     0.0000   234.0000 </r>
       <r>    -6.0365     0.0000   234.0000 </r>
       <r>    -5.9356    12.5690   235.2688 </r>
       <r>    -5.8346    10.4923   237.0591 </r>
       <r>    -5.7337    26.4174   240.0000 </r>
       <r>    -5.6328     0.0000   240.0000 </r>
       <r>    -5.5318     1.4283   240.1442 </r>
       <r>    -5.4309    18.0869   242.3924 </r>
       <r>    -5.3299    28.0683   246.0000 </r>
       <r>    -5.2290     0.0000   246.0000 </r>
       <r>    -5.1281     0.6627   246.0669 </r>
       <r>    -5.0271    28.3877   252.0000 </r>
       <r>    -4.9262     0.0000   252.0000 </r>
       <r>    -4.8252     0.0000   252.0000 </r>
       <r>    -4.7243     0.0000   252.0000 </r>
       <r>    -4.6233     0.0000   252.0000 </r>
       <r>    -4.5224     0.0000   252.0000 </r>
       <r>    -4.4215     0.0000   252.0000 </r>
       <r>    -4.3205     0.0000   252.0000 </r>
       <r>    -4.2196     0.0000   252.0000 </r>
       <r>    -4.1186     0.0000   252.0000 </r>
       <r>    -4.0177     0.0000   252.0000 </r>
       <r>    -3.9167     0.0000   252.0000 </r>
       <r>    -3.8158     0.0000   252.0000 </r>
       <r>    -3.7149     0.0000   252.0000 </r>
       <r>    -3.6139     0.0000   252.0000 </r>
       <r>    -3.5130     0.0000   252.0000 </r>
       <r>    -3.4120     0.0000   252.0000 </r>
       <r>    -3.3111     0.0000   252.0000 </r>
       <r>    -3.2101     0.0000   252.0000 </r>
       <r>    -3.1092     0.0000   252.0000 </r>
       <r>    -3.0083     0.0000   252.0000 </r>
       <r>    -2.9073     0.0000   252.0000 </r>
       <r>    -2.8064     0.0000   252.0000 </r>
       <r>    -2.7054     0.0071   252.0007 </r>
       <r>    -2.6045    39.6193   256.0000 </r>
       <r>    -2.5035     1.2759   256.1288 </r>
       <r>    -2.4026    25.2849   259.5857 </r>
       <r>    -2.3017     0.0000   260.0000 </r>
       <r>    -2.2007     0.0000   260.0000 </r>
       <r>    -2.0998     5.5305   260.5583 </r>
       <r>    -1.9988    10.2378   261.7334 </r>
       <r>    -1.8979     0.0015   262.0001 </r>
       <r>    -1.7969    15.2513   263.5397 </r>
       <r>    -1.6960     0.0000   266.0000 </r>
       <r>    -1.5951     0.0000   266.0000 </r>
       <r>    -1.4941     0.0000   266.0000 </r>
       <r>    -1.3932    19.8132   268.0000 </r>
       <r>    -1.2922     0.0000   268.0000 </r>
       <r>    -1.1913    14.4932   269.4630 </r>
       <r>    -1.0903     3.9623   270.0000 </r>
       <r>    -0.9894    11.1506   271.1256 </r>
       <r>    -0.8885     3.6411   272.6009 </r>
       <r>    -0.7875     5.5087   273.2561 </r>
       <r>    -0.6866     2.9707   274.0000 </r>
       <r>    -0.5856    22.4208   276.2632 </r>
       <r>    -0.4847    18.3623   278.5537 </r>
       <r>    -0.3837    18.6025   281.1112 </r>
       <r>    -0.2828    19.4815   283.9666 </r>
       <r>    -0.1819     0.0000   284.0000 </r>
       <r>    -0.0809    17.4901   285.7655 </r>
       <r>     0.0200     0.0000   288.0000 </r>
       <r>     0.1210     0.0000   288.0000 </r>
       <r>     0.2219    19.8128   290.0000 </r>
       <r>     0.3229     0.0027   290.0003 </r>
       <r>     0.4238    35.0675   293.5401 </r>
       <r>     0.5247    38.0808   297.8440 </r>
       <r>     0.6257    49.5614   304.8365 </r>
       <r>     0.7266    49.1020   311.2900 </r>
       <r>     0.8276    32.2763   315.4250 </r>
       <r>     0.9285    63.2610   322.6191 </r>
       <r>     1.0295    53.3443   329.3847 </r>
       <r>     1.1304    52.6223   335.9453 </r>
       <r>     1.2313    41.6510   341.4046 </r>
       <r>     1.3323    42.1932   346.6596 </r>
       <r>     1.4332    36.6326   350.7979 </r>
       <r>     1.5342     7.5939   352.0000 </r>
       <r>     1.6351     0.0000   352.0000 </r>
       <r>     1.7361     0.0000   352.0000 </r>
       <r>     1.8370     0.0000   352.0000 </r>
       <r>     1.9379     0.0000   352.0000 </r>
       <r>     2.0389     0.0000   352.0000 </r>
       <r>     2.1398     0.0000   352.0000 </r>
       <r>     2.2408     0.0000   352.0000 </r>
       <r>     2.3417     0.0000   352.0000 </r>
       <r>     2.4427     0.0000   352.0000 </r>
       <r>     2.5436     0.0000   352.0000 </r>
       <r>     2.6445     0.0000   352.0000 </r>
       <r>     2.7455     0.0000   352.0000 </r>
       <r>     2.8464     0.0000   352.0000 </r>
      </set>
     </set>
    </array>
   </total>
  </dos>
 </calculation>
 <structure name="finalpos" >
  <crystal>
   <varray name="basis" >
    <v>      21.92435372      -0.03991702       0.00000000 </v>
    <v>     -10.99675723      19.01495347       0.00000000 </v>
    <v>       0.00000000       0.00000000      20.00000000 </v>
   </varray>
   <i name="volume">   8329.03215926 </i>
   <varray name="rec_basis" >
    <v>       0.04565946       0.02640585       0.00000000 </v>
    <v>       0.00009585       0.05264562       0.00000000 </v>
    <v>       0.00000000       0.00000000       0.05000000 </v>
   </varray>
  </crystal>
  <varray name="positions" >
   <v>       0.24730439       0.71100258       0.54959379 </v>
   <v>       0.29607784       0.54433218       0.54806910 </v>
   <v>       0.46351878       0.76031635       0.54825500 </v>
   <v>       0.75169047       0.29321764       0.43369942 </v>
   <v>       0.71299396       0.46685938       0.43442407 </v>
   <v>       0.53862054       0.25401508       0.43332277 </v>
   <v>       0.92196846       0.36788304       0.39393508 </v>
   <v>       0.00470946       0.37967910       0.40842924 </v>
   <v>       0.83910717       0.36963065       0.47738816 </v>
   <v>       0.63800102       0.56103152       0.39234216 </v>
   <v>       0.62706945       0.63234998       0.40617777 </v>
   <v>       0.63671277       0.47799332       0.47621852 </v>
   <v>       0.44368722       0.08162585       0.39007311 </v>
   <v>       0.37303253       0.99859055       0.40412163 </v>
   <v>       0.52655716       0.16596928       0.47421258 </v>
   <v>       0.03383736       0.60701404       0.56657635 </v>
   <v>       0.15374111       0.63161288       0.54991404 </v>
   <v>       0.39921730       0.43523291       0.56559606 </v>
   <v>       0.37493870       0.53031572       0.54755512 </v>
   <v>       0.57234214       0.97510111       0.56641948 </v>
   <v>       0.47778805       0.85397528       0.54922206 </v>
   <v>       0.38727483       0.65181862       0.54963638 </v>
   <v>       0.40685884       0.72318836       0.55016593 </v>
   <v>       0.35592500       0.74360143       0.55061347 </v>
   <v>       0.28437694       0.69157058       0.55089734 </v>
   <v>       0.31572938       0.60087323       0.54999680 </v>
   <v>       0.44685900       0.63646892       0.54367314 </v>
   <v>       0.37124467       0.81854976       0.54561442 </v>
   <v>       0.61894540       0.36163414       0.43588529 </v>
   <v>       0.59564772       0.28945626       0.43505929 </v>
   <v>       0.64391023       0.26557781       0.43533277 </v>
   <v>       0.71628875       0.31466827       0.43529441 </v>
   <v>       0.69133561       0.40994161       0.43571539 </v>
   <v>       0.56258567       0.38169336       0.43832358 </v>
   <v>       0.62356248       0.18913288       0.43719216 </v>
   <v>       0.93297033       0.46477746       0.48098647 </v>
   <v>       0.98298569       0.44473166       0.46197935 </v>
   <v>       0.54149563       0.47622231       0.48021845 </v>
   <v>       0.56180844       0.54616017       0.46065555 </v>
   <v>       0.52921974       0.07312608       0.47889576 </v>
   <v>       0.45943761       0.02209702       0.45952089 </v>
   <v>       0.26375170       0.62020790       0.55032471 </v>
   <v>       0.18861985       0.56045585       0.54482546 </v>
   <v>       0.74040398       0.38686289       0.43603348 </v>
   <v>       0.81708210       0.44318416       0.43839700 </v>
   <v>       0.01887652       0.56002233       0.53645107 </v>
   <v>       0.06787410       0.53912995       0.51922074 </v>
   <v>       0.44633263       0.46713291       0.53539599 </v>
   <v>       0.46751835       0.53694975       0.51763529 </v>
   <v>       0.53986934       0.98896487       0.53567939 </v>
   <v>       0.47012708       0.93900289       0.51831328 </v>
   <v>       0.05019891       0.48252169       0.48157865 </v>
   <v>       0.96396012       0.38515885       0.42500594 </v>
   <v>       0.86145218       0.42080309       0.46292287 </v>
   <v>       0.52431659       0.57577071       0.47994395 </v>
   <v>       0.62142398       0.58630014       0.42334700 </v>
   <v>       0.58527984       0.44870737       0.46232482 </v>
   <v>       0.43066004       0.95529957       0.47984200 </v>
   <v>       0.41866245       0.03987412       0.42132711 </v>
   <v>       0.55599439       0.14420962       0.46016960 </v>
   <v>       0.95156833       0.52192588       0.51737130 </v>
   <v>       0.13832345       0.58075942       0.53923941 </v>
   <v>       0.48426931       0.43779600       0.51674854 </v>
   <v>       0.42600411       0.56584623       0.53711842 </v>
   <v>       0.56836985       0.05589748       0.51598725 </v>
   <v>       0.44190874       0.86892035       0.53890191 </v>
   <v>       0.17471530       0.49883695       0.54391666 </v>
   <v>       0.50875181       0.68414577       0.54331311 </v>
   <v>       0.32341837       0.83235232       0.54600489 </v>
   <v>       0.83726057       0.50390735       0.42035968 </v>
   <v>       0.50157696       0.34072802       0.42082159 </v>
   <v>       0.66480519       0.16948119       0.42011430 </v>
  </varray>
 </structure>
</modeling>
