<?xml version="1.0" encoding="ISO-8859-1"?>
<modeling>
 <generator>
  <i name="program" type="string">vasp </i>
  <i name="version" type="string">5.4.4.18Apr17-6-g9f103f2a35  </i>
  <i name="subversion" type="string">(build Jun 07 2020 16:50:00) complex            parallel </i>
  <i name="platform" type="string">LinuxIFC </i>
  <i name="date" type="string">2023 02 16 </i>
  <i name="time" type="string">09:02:32 </i>
 </generator>
 <incar>
  <i type="string" name="SYSTEM">Simulation for cell shape cell volume r</i>
  <i type="int" name="ISTART">     1</i>
  <i type="string" name="PREC">high</i>
  <i type="string" name="ALGO">48</i>
  <i type="int" name="ICHARG">    11</i>
  <i type="int" name="NELM">   200</i>
  <i type="int" name="IBRION">    -1</i>
  <i name="EDIFF">      0.00001000</i>
  <i name="EDIFFG">     -0.01000000</i>
  <i type="int" name="NSW">     0</i>
  <i type="int" name="ISIF">     2</i>
  <i name="ENCUT">    500.00000000</i>
  <i name="POTIM">      0.30000000</i>
  <i type="string" name="LREAL">A</i>
  <i type="int" name="ISMEAR">     0</i>
  <i name="SIGMA">      0.01000000</i>
  <i type="int" name="NWRITE">     0</i>
  <i type="logical" name="LWAVE"> F  </i>
  <i type="logical" name="LCHARG"> F  </i>
  <v type="int" name="KPOINT_BSE">    -1     0     0     0</v>
  <i type="int" name="NELM">   200</i>
  <i type="string" name="GGA">PE</i>
 </incar>
 <structure name="primitive_cell" >
  <crystal>
   <varray name="basis" >
    <v>      29.53094694      -0.06652250       0.00000000 </v>
    <v>     -14.82314492      25.55527061       0.00000000 </v>
    <v>       0.00000000       0.00000000      20.00000000 </v>
   </varray>
   <i name="volume">  15073.70535018 </i>
   <varray name="rec_basis" >
    <v>       0.03390709       0.01966755       0.00000000 </v>
    <v>       0.00008826       0.03918207       0.00000000 </v>
    <v>       0.00000000       0.00000000       0.05000000 </v>
   </varray>
  </crystal>
  <varray name="positions" >
   <v>       0.40751778      -0.03195909       0.36388303 </v>
   <v>       0.43621063      -0.04903289       0.38246750 </v>
   <v>       0.44145532      -0.08307854       0.35333187 </v>
   <v>       0.46790738      -0.02559267       0.44348807 </v>
   <v>       0.48615980       0.05039637       0.40930915 </v>
   <v>       0.49296682       0.02872223       0.44827058 </v>
   <v>       0.36907133      -0.12150554       0.47703714 </v>
   <v>       0.47450791      -0.05693143       0.49101790 </v>
   <v>       0.39012688      -0.14276723       0.48358216 </v>
   <v>       0.44495388      -0.11484517       0.49067259 </v>
   <v>      -0.47169045       0.05494050      -0.49948870 </v>
   <v>       0.48915359       0.11920789       0.47587736 </v>
   <v>      -0.49030758      -0.02992581      -0.45664051 </v>
   <v>      -0.46354478       0.02448782      -0.45224183 </v>
   <v>       0.36236941      -0.19716601       0.48584183 </v>
   <v>      -0.44368498       0.11270492      -0.49540651 </v>
   <v>      -0.46934277       0.14062019       0.48905533 </v>
   <v>       0.47116996      -0.14296068      -0.49964874 </v>
   <v>       0.31985910      -0.21880277       0.48078825 </v>
   <v>      -0.48528337      -0.05282822      -0.41761303 </v>
   <v>      -0.48623101      -0.12174313      -0.49475177 </v>
   <v>      -0.43711300       0.04372062      -0.41026885 </v>
   <v>       0.38875706      -0.22521468       0.49462966 </v>
   <v>       0.44352377      -0.19743464      -0.49819261 </v>
   <v>      -0.39048066       0.14115897      -0.47697971 </v>
   <v>      -0.44272486       0.19504088       0.49143294 </v>
   <v>      -0.36974236       0.12022980      -0.46558175 </v>
   <v>      -0.46270891       0.21659546       0.47971696 </v>
   <v>       0.46386966      -0.21931417      -0.49172205 </v>
   <v>       0.35930721      -0.28317081       0.49614938 </v>
   <v>      -0.36351059       0.19562443      -0.47575729 </v>
   <v>      -0.38928631       0.22326275      -0.49168594 </v>
   <v>       0.30662569      -0.30752106       0.49527103 </v>
   <v>       0.21766383      -0.32017312       0.48207748 </v>
   <v>       0.38704824      -0.30793331       0.49795729 </v>
   <v>      -0.32197112       0.21760840      -0.46322571 </v>
   <v>      -0.36039228       0.28118174      -0.49278027 </v>
   <v>       0.28166321      -0.36016216       0.49795069 </v>
   <v>       0.19585895      -0.36264500       0.48741254 </v>
   <v>      -0.38853574       0.30539549      -0.49750874 </v>
   <v>       0.35851619      -0.36055870       0.49969077 </v>
   <v>       0.22368025      -0.38918879       0.49684742 </v>
   <v>       0.12036575      -0.36906912       0.47740257 </v>
   <v>      -0.46288637       0.31904218      -0.47560511 </v>
   <v>      -0.30773277       0.30603978      -0.49014760 </v>
   <v>       0.46262540      -0.32094037       0.48462971 </v>
   <v>       0.30583134      -0.38841742      -0.49913518 </v>
   <v>       0.14143451      -0.39024185       0.48463208 </v>
   <v>      -0.36035898       0.35798473       0.49845151 </v>
   <v>      -0.44316165       0.36057660      -0.48807399 </v>
   <v>       0.38694766      -0.38987640       0.49900895 </v>
   <v>       0.44153028      -0.36343821       0.48967967 </v>
   <v>      -0.28314712       0.35847734      -0.49673579 </v>
   <v>       0.19565452      -0.44390513      -0.49563666 </v>
   <v>      -0.38947547       0.38655915       0.49634025 </v>
   <v>       0.08327608      -0.44118251       0.35344268 </v>
   <v>       0.03195751      -0.40738354       0.36313580 </v>
   <v>       0.11328634      -0.44503496       0.49186216 </v>
   <v>      -0.21926453       0.32059934      -0.46737201 </v>
   <v>      -0.30766528       0.38622008       0.49660605 </v>
   <v>       0.48774632       0.36674406      -0.47684146 </v>
   <v>       0.04886096      -0.43616010       0.38195593 </v>
   <v>      -0.47047944       0.38752247      -0.48854922 </v>
   <v>       0.21737507      -0.46436895      -0.48878202 </v>
   <v>       0.14118444      -0.47137120      -0.49758011 </v>
   <v>       0.46793627      -0.39119743       0.48623315 </v>
   <v>       0.35964499      -0.44462666      -0.49392308 </v>
   <v>      -0.22518813       0.38747500      -0.49712796 </v>
   <v>      -0.19736850       0.36201890      -0.48044961 </v>
   <v>      -0.48966766      -0.37015225       0.47892624 </v>
   <v>       0.31730189      -0.46500068      -0.48703371 </v>
   <v>       0.05535206      -0.47464358       0.49103749 </v>
   <v>       0.02459476      -0.46825838       0.44239921 </v>
   <v>      -0.36396760       0.43999739       0.47962667 </v>
   <v>      -0.44529035       0.44092786       0.49416709 </v>
   <v>       0.11978429       0.48605412      -0.49256607 </v>
   <v>      -0.32221460       0.46018415       0.46825557 </v>
   <v>       0.38624445      -0.47227394      -0.49661742 </v>
   <v>       0.44064775      -0.44606398       0.49253223 </v>
   <v>      -0.39162628       0.46660982       0.47794932 </v>
   <v>      -0.19710383       0.44072865       0.48517345 </v>
   <v>       0.47432813      -0.43978425       0.35372821 </v>
   <v>      -0.14288903       0.38918572      -0.48131746 </v>
   <v>      -0.21876099       0.46051730       0.47298395 </v>
   <v>      -0.02983698      -0.49378663       0.44555090 </v>
   <v>       0.02766168       0.49002935      -0.45702970 </v>
   <v>      -0.12182450       0.36871151      -0.46917598 </v>
   <v>      -0.05104447      -0.48719698       0.40573156 </v>
   <v>       0.05005355       0.48517132      -0.41713363 </v>
   <v>       0.48081522       0.43347683      -0.41721197 </v>
   <v>      -0.47458210       0.46928746       0.49297127 </v>
   <v>      -0.48623783      -0.43556970       0.38139725 </v>
   <v>      -0.44033699      -0.40678063       0.36253406 </v>
   <v>       0.36458600       0.48511481      -0.49213832 </v>
   <v>       0.48770618       0.46068676      -0.45805250 </v>
   <v>      -0.37123149      -0.49177734       0.46541185 </v>
   <v>      -0.14264041       0.46756606       0.48320735 </v>
   <v>      -0.11455728       0.44230471       0.49996536 </v>
   <v>       0.46854864      -0.47583002       0.49000671 </v>
   <v>      -0.43792408      -0.48705929       0.40218683 </v>
   <v>      -0.02683285       0.46287714      -0.45414856 </v>
   <v>      -0.05672285       0.47068843       0.49734429 </v>
   <v>      -0.46570590      -0.49433182       0.44235688 </v>
   <v>      -0.49435656      -0.46870522       0.44079108 </v>
   <v>      -0.12134407      -0.49100049       0.46972282 </v>
   <v>       0.46063366       0.48793978      -0.45928115 </v>
   <v>      -0.04660643       0.43640964      -0.41238192 </v>
   <v>       0.43341856       0.48243970      -0.41898211 </v>
  </varray>
 </structure>
 <varray name="primitive_index" >
  <v type="int" >        1 </v>
  <v type="int" >       46 </v>
  <v type="int" >        2 </v>
  <v type="int" >       93 </v>
  <v type="int" >       31 </v>
  <v type="int" >       92 </v>
  <v type="int" >       17 </v>
  <v type="int" >       94 </v>
  <v type="int" >       54 </v>
  <v type="int" >       55 </v>
  <v type="int" >       91 </v>
  <v type="int" >       28 </v>
  <v type="int" >      103 </v>
  <v type="int" >      104 </v>
  <v type="int" >       53 </v>
  <v type="int" >       76 </v>
  <v type="int" >       77 </v>
  <v type="int" >       56 </v>
  <v type="int" >       18 </v>
  <v type="int" >       34 </v>
  <v type="int" >       16 </v>
  <v type="int" >       35 </v>
  <v type="int" >       52 </v>
  <v type="int" >       57 </v>
  <v type="int" >       75 </v>
  <v type="int" >       78 </v>
  <v type="int" >       29 </v>
  <v type="int" >       27 </v>
  <v type="int" >       15 </v>
  <v type="int" >       50 </v>
  <v type="int" >       74 </v>
  <v type="int" >       73 </v>
  <v type="int" >       40 </v>
  <v type="int" >        8 </v>
  <v type="int" >       41 </v>
  <v type="int" >       30 </v>
  <v type="int" >       71 </v>
  <v type="int" >       49 </v>
  <v type="int" >       59 </v>
  <v type="int" >       44 </v>
  <v type="int" >       51 </v>
  <v type="int" >       58 </v>
  <v type="int" >        7 </v>
  <v type="int" >       25 </v>
  <v type="int" >       43 </v>
  <v type="int" >       13 </v>
  <v type="int" >       42 </v>
  <v type="int" >       60 </v>
  <v type="int" >       72 </v>
  <v type="int" >       90 </v>
  <v type="int" >       64 </v>
  <v type="int" >       69 </v>
  <v type="int" >       70 </v>
  <v type="int" >       63 </v>
  <v type="int" >       85 </v>
  <v type="int" >        4 </v>
  <v type="int" >        3 </v>
  <v type="int" >       61 </v>
  <v type="int" >       20 </v>
  <v type="int" >       45 </v>
  <v type="int" >       26 </v>
  <v type="int" >       47 </v>
  <v type="int" >       89 </v>
  <v type="int" >       10 </v>
  <v type="int" >       62 </v>
  <v type="int" >       68 </v>
  <v type="int" >       65 </v>
  <v type="int" >       79 </v>
  <v type="int" >       80 </v>
  <v type="int" >       14 </v>
  <v type="int" >       11 </v>
  <v type="int" >       98 </v>
  <v type="int" >       97 </v>
  <v type="int" >       86 </v>
  <v type="int" >       88 </v>
  <v type="int" >        9 </v>
  <v type="int" >       23 </v>
  <v type="int" >       66 </v>
  <v type="int" >       67 </v>
  <v type="int" >       87 </v>
  <v type="int" >       84 </v>
  <v type="int" >        6 </v>
  <v type="int" >       81 </v>
  <v type="int" >       22 </v>
  <v type="int" >       96 </v>
  <v type="int" >      105 </v>
  <v type="int" >       19 </v>
  <v type="int" >       32 </v>
  <v type="int" >       36 </v>
  <v type="int" >       39 </v>
  <v type="int" >       99 </v>
  <v type="int" >       48 </v>
  <v type="int" >        5 </v>
  <v type="int" >       12 </v>
  <v type="int" >      108 </v>
  <v type="int" >       24 </v>
  <v type="int" >       83 </v>
  <v type="int" >       82 </v>
  <v type="int" >      102 </v>
  <v type="int" >       33 </v>
  <v type="int" >      106 </v>
  <v type="int" >       95 </v>
  <v type="int" >      100 </v>
  <v type="int" >      101 </v>
  <v type="int" >       21 </v>
  <v type="int" >      107 </v>
  <v type="int" >       37 </v>
  <v type="int" >       38 </v>
 </varray>
 <kpoints>
  <generation param="listgenerated">
   <i name="divisions" type="int">      20 </i>
   <v>       0.00000000       0.00000000       0.00000000 </v>
   <v>       0.50000000      -0.50000000       0.00000000 </v>
   <v>       0.66734681      -0.33237615       0.00000000 </v>
   <v>       0.50000000       0.00000000       0.00000000 </v>
   <v>       0.33265319       0.33237615       0.00000000 </v>
   <v>       0.00000000       0.50000000       0.00000000 </v>
   <v>       0.00000000       0.00000000       0.00000000 </v>
  </generation>
  <varray name="kpointlist" >
   <v>       0.00000000       0.00000000       0.00000000 </v>
   <v>       0.02631579      -0.02631579       0.00000000 </v>
   <v>       0.05263158      -0.05263158       0.00000000 </v>
   <v>       0.07894737      -0.07894737       0.00000000 </v>
   <v>       0.10526316      -0.10526316       0.00000000 </v>
   <v>       0.13157895      -0.13157895       0.00000000 </v>
   <v>       0.15789474      -0.15789474       0.00000000 </v>
   <v>       0.18421053      -0.18421053       0.00000000 </v>
   <v>       0.21052632      -0.21052632       0.00000000 </v>
   <v>       0.23684211      -0.23684211       0.00000000 </v>
   <v>       0.26315789      -0.26315789       0.00000000 </v>
   <v>       0.28947368      -0.28947368       0.00000000 </v>
   <v>       0.31578947      -0.31578947       0.00000000 </v>
   <v>       0.34210526      -0.34210526       0.00000000 </v>
   <v>       0.36842105      -0.36842105       0.00000000 </v>
   <v>       0.39473684      -0.39473684       0.00000000 </v>
   <v>       0.42105263      -0.42105263       0.00000000 </v>
   <v>       0.44736842      -0.44736842       0.00000000 </v>
   <v>       0.47368421      -0.47368421       0.00000000 </v>
   <v>       0.50000000      -0.50000000       0.00000000 </v>
   <v>       0.50000000      -0.50000000       0.00000000 </v>
   <v>       0.50880773      -0.49117769       0.00000000 </v>
   <v>       0.51761545      -0.48235538       0.00000000 </v>
   <v>       0.52642318      -0.47353308       0.00000000 </v>
   <v>       0.53523091      -0.46471077       0.00000000 </v>
   <v>       0.54403863      -0.45588846       0.00000000 </v>
   <v>       0.55284636      -0.44706615       0.00000000 </v>
   <v>       0.56165409      -0.43824384       0.00000000 </v>
   <v>       0.57046182      -0.42942154       0.00000000 </v>
   <v>       0.57926954      -0.42059923       0.00000000 </v>
   <v>       0.58807727      -0.41177692       0.00000000 </v>
   <v>       0.59688500      -0.40295461       0.00000000 </v>
   <v>       0.60569272      -0.39413230       0.00000000 </v>
   <v>       0.61450045      -0.38531000       0.00000000 </v>
   <v>       0.62330818      -0.37648769       0.00000000 </v>
   <v>       0.63211590      -0.36766538       0.00000000 </v>
   <v>       0.64092363      -0.35884307       0.00000000 </v>
   <v>       0.64973136      -0.35002076       0.00000000 </v>
   <v>       0.65853908      -0.34119846       0.00000000 </v>
   <v>       0.66734681      -0.33237615       0.00000000 </v>
   <v>       0.66734681      -0.33237615       0.00000000 </v>
   <v>       0.65853908      -0.31488267       0.00000000 </v>
   <v>       0.64973136      -0.29738919       0.00000000 </v>
   <v>       0.64092363      -0.27989570       0.00000000 </v>
   <v>       0.63211590      -0.26240222       0.00000000 </v>
   <v>       0.62330818      -0.24490874       0.00000000 </v>
   <v>       0.61450045      -0.22741526       0.00000000 </v>
   <v>       0.60569272      -0.20992178       0.00000000 </v>
   <v>       0.59688500      -0.19242830       0.00000000 </v>
   <v>       0.58807727      -0.17493481       0.00000000 </v>
   <v>       0.57926954      -0.15744133       0.00000000 </v>
   <v>       0.57046182      -0.13994785       0.00000000 </v>
   <v>       0.56165409      -0.12245437       0.00000000 </v>
   <v>       0.55284636      -0.10496089       0.00000000 </v>
   <v>       0.54403863      -0.08746741       0.00000000 </v>
   <v>       0.53523091      -0.06997393       0.00000000 </v>
   <v>       0.52642318      -0.05248044       0.00000000 </v>
   <v>       0.51761545      -0.03498696       0.00000000 </v>
   <v>       0.50880773      -0.01749348       0.00000000 </v>
   <v>       0.50000000       0.00000000       0.00000000 </v>
   <v>       0.50000000       0.00000000       0.00000000 </v>
   <v>       0.49119227       0.01749348       0.00000000 </v>
   <v>       0.48238455       0.03498696       0.00000000 </v>
   <v>       0.47357682       0.05248044       0.00000000 </v>
   <v>       0.46476909       0.06997393       0.00000000 </v>
   <v>       0.45596137       0.08746741       0.00000000 </v>
   <v>       0.44715364       0.10496089       0.00000000 </v>
   <v>       0.43834591       0.12245437       0.00000000 </v>
   <v>       0.42953818       0.13994785       0.00000000 </v>
   <v>       0.42073046       0.15744133       0.00000000 </v>
   <v>       0.41192273       0.17493481       0.00000000 </v>
   <v>       0.40311500       0.19242830       0.00000000 </v>
   <v>       0.39430728       0.20992178       0.00000000 </v>
   <v>       0.38549955       0.22741526       0.00000000 </v>
   <v>       0.37669182       0.24490874       0.00000000 </v>
   <v>       0.36788410       0.26240222       0.00000000 </v>
   <v>       0.35907637       0.27989570       0.00000000 </v>
   <v>       0.35026864       0.29738919       0.00000000 </v>
   <v>       0.34146092       0.31488267       0.00000000 </v>
   <v>       0.33265319       0.33237615       0.00000000 </v>
   <v>       0.33265319       0.33237615       0.00000000 </v>
   <v>       0.31514513       0.34119846       0.00000000 </v>
   <v>       0.29763706       0.35002076       0.00000000 </v>
   <v>       0.28012900       0.35884307       0.00000000 </v>
   <v>       0.26262094       0.36766538       0.00000000 </v>
   <v>       0.24511288       0.37648769       0.00000000 </v>
   <v>       0.22760481       0.38531000       0.00000000 </v>
   <v>       0.21009675       0.39413230       0.00000000 </v>
   <v>       0.19258869       0.40295461       0.00000000 </v>
   <v>       0.17508063       0.41177692       0.00000000 </v>
   <v>       0.15757256       0.42059923       0.00000000 </v>
   <v>       0.14006450       0.42942154       0.00000000 </v>
   <v>       0.12255644       0.43824384       0.00000000 </v>
   <v>       0.10504838       0.44706615       0.00000000 </v>
   <v>       0.08754031       0.45588846       0.00000000 </v>
   <v>       0.07003225       0.46471077       0.00000000 </v>
   <v>       0.05252419       0.47353308       0.00000000 </v>
   <v>       0.03501613       0.48235538       0.00000000 </v>
   <v>       0.01750806       0.49117769       0.00000000 </v>
   <v>       0.00000000       0.50000000       0.00000000 </v>
   <v>       0.00000000       0.50000000       0.00000000 </v>
   <v>       0.00000000       0.47368421       0.00000000 </v>
   <v>       0.00000000       0.44736842       0.00000000 </v>
   <v>       0.00000000       0.42105263       0.00000000 </v>
   <v>       0.00000000       0.39473684       0.00000000 </v>
   <v>       0.00000000       0.36842105       0.00000000 </v>
   <v>       0.00000000       0.34210526       0.00000000 </v>
   <v>       0.00000000       0.31578947       0.00000000 </v>
   <v>       0.00000000       0.28947368       0.00000000 </v>
   <v>       0.00000000       0.26315789       0.00000000 </v>
   <v>       0.00000000       0.23684211       0.00000000 </v>
   <v>       0.00000000       0.21052632       0.00000000 </v>
   <v>       0.00000000       0.18421053       0.00000000 </v>
   <v>       0.00000000       0.15789474       0.00000000 </v>
   <v>       0.00000000       0.13157895       0.00000000 </v>
   <v>       0.00000000       0.10526316       0.00000000 </v>
   <v>       0.00000000       0.07894737       0.00000000 </v>
   <v>       0.00000000       0.05263158       0.00000000 </v>
   <v>       0.00000000       0.02631579       0.00000000 </v>
   <v>       0.00000000       0.00000000       0.00000000 </v>
  </varray>
  <varray name="weights" >
   <v>       0.00833333 </v>
   <v>       0.00833333 </v>
   <v>       0.00833333 </v>
   <v>       0.00833333 </v>
   <v>       0.00833333 </v>
   <v>       0.00833333 </v>
   <v>       0.00833333 </v>
   <v>       0.00833333 </v>
   <v>       0.00833333 </v>
   <v>       0.00833333 </v>
   <v>       0.00833333 </v>
   <v>       0.00833333 </v>
   <v>       0.00833333 </v>
   <v>       0.00833333 </v>
   <v>       0.00833333 </v>
   <v>       0.00833333 </v>
   <v>       0.00833333 </v>
   <v>       0.00833333 </v>
   <v>       0.00833333 </v>
   <v>       0.00833333 </v>
   <v>       0.00833333 </v>
   <v>       0.00833333 </v>
   <v>       0.00833333 </v>
   <v>       0.00833333 </v>
   <v>       0.00833333 </v>
   <v>       0.00833333 </v>
   <v>       0.00833333 </v>
   <v>       0.00833333 </v>
   <v>       0.00833333 </v>
   <v>       0.00833333 </v>
   <v>       0.00833333 </v>
   <v>       0.00833333 </v>
   <v>       0.00833333 </v>
   <v>       0.00833333 </v>
   <v>       0.00833333 </v>
   <v>       0.00833333 </v>
   <v>       0.00833333 </v>
   <v>       0.00833333 </v>
   <v>       0.00833333 </v>
   <v>       0.00833333 </v>
   <v>       0.00833333 </v>
   <v>       0.00833333 </v>
   <v>       0.00833333 </v>
   <v>       0.00833333 </v>
   <v>       0.00833333 </v>
   <v>       0.00833333 </v>
   <v>       0.00833333 </v>
   <v>       0.00833333 </v>
   <v>       0.00833333 </v>
   <v>       0.00833333 </v>
   <v>       0.00833333 </v>
   <v>       0.00833333 </v>
   <v>       0.00833333 </v>
   <v>       0.00833333 </v>
   <v>       0.00833333 </v>
   <v>       0.00833333 </v>
   <v>       0.00833333 </v>
   <v>       0.00833333 </v>
   <v>       0.00833333 </v>
   <v>       0.00833333 </v>
   <v>       0.00833333 </v>
   <v>       0.00833333 </v>
   <v>       0.00833333 </v>
   <v>       0.00833333 </v>
   <v>       0.00833333 </v>
   <v>       0.00833333 </v>
   <v>       0.00833333 </v>
   <v>       0.00833333 </v>
   <v>       0.00833333 </v>
   <v>       0.00833333 </v>
   <v>       0.00833333 </v>
   <v>       0.00833333 </v>
   <v>       0.00833333 </v>
   <v>       0.00833333 </v>
   <v>       0.00833333 </v>
   <v>       0.00833333 </v>
   <v>       0.00833333 </v>
   <v>       0.00833333 </v>
   <v>       0.00833333 </v>
   <v>       0.00833333 </v>
   <v>       0.00833333 </v>
   <v>       0.00833333 </v>
   <v>       0.00833333 </v>
   <v>       0.00833333 </v>
   <v>       0.00833333 </v>
   <v>       0.00833333 </v>
   <v>       0.00833333 </v>
   <v>       0.00833333 </v>
   <v>       0.00833333 </v>
   <v>       0.00833333 </v>
   <v>       0.00833333 </v>
   <v>       0.00833333 </v>
   <v>       0.00833333 </v>
   <v>       0.00833333 </v>
   <v>       0.00833333 </v>
   <v>       0.00833333 </v>
   <v>       0.00833333 </v>
   <v>       0.00833333 </v>
   <v>       0.00833333 </v>
   <v>       0.00833333 </v>
   <v>       0.00833333 </v>
   <v>       0.00833333 </v>
   <v>       0.00833333 </v>
   <v>       0.00833333 </v>
   <v>       0.00833333 </v>
   <v>       0.00833333 </v>
   <v>       0.00833333 </v>
   <v>       0.00833333 </v>
   <v>       0.00833333 </v>
   <v>       0.00833333 </v>
   <v>       0.00833333 </v>
   <v>       0.00833333 </v>
   <v>       0.00833333 </v>
   <v>       0.00833333 </v>
   <v>       0.00833333 </v>
   <v>       0.00833333 </v>
   <v>       0.00833333 </v>
   <v>       0.00833333 </v>
   <v>       0.00833333 </v>
   <v>       0.00833333 </v>
  </varray>
 </kpoints>
 <parameters>
  <separator name="general" >
   <i type="string" name="SYSTEM">Simulation for cell shape cell volume r</i>
   <i type="logical" name="LCOMPAT"> F  </i>
  </separator>
  <separator name="electronic" >
   <i type="string" name="PREC">high</i>
   <i name="ENMAX">    500.00000000</i>
   <i name="ENAUG">    644.87300000</i>
   <i name="EDIFF">      0.00001000</i>
   <i type="int" name="IALGO">    38</i>
   <i type="int" name="IWAVPR">    10</i>
   <i type="int" name="NBANDS">   240</i>
   <i name="NELECT">    354.00000000</i>
   <i type="int" name="TURBO">     0</i>
   <i type="int" name="IRESTART">     0</i>
   <i type="int" name="NREBOOT">     0</i>
   <i type="int" name="NMIN">     0</i>
   <i name="EREF">      0.00000000</i>
   <separator name="electronic smearing" >
    <i type="int" name="ISMEAR">     0</i>
    <i name="SIGMA">      0.01000000</i>
    <i name="KSPACING">      0.50000000</i>
    <i type="logical" name="KGAMMA"> T  </i>
   </separator>
   <separator name="electronic projectors" >
    <i type="logical" name="LREAL"> T  </i>
    <v name="ROPT">     -0.00040000     -0.00040000     -0.00040000     -0.00040000</v>
    <i type="int" name="LMAXPAW">  -100</i>
    <i type="int" name="LMAXMIX">     2</i>
    <i type="logical" name="NLSPLINE"> F  </i>
   </separator>
   <separator name="electronic startup" >
    <i type="int" name="ISTART">     1</i>
    <i type="int" name="ICHARG">    11</i>
    <i type="int" name="INIWAV">     1</i>
   </separator>
   <separator name="electronic spin" >
    <i type="int" name="ISPIN">     1</i>
    <i type="logical" name="LNONCOLLINEAR"> F  </i>
    <v name="MAGMOM">      1.00000000      1.00000000      1.00000000      1.00000000      1.00000000      1.00000000      1.00000000      1.00000000      1.00000000      1.00000000      1.00000000      1.00000000      1.00000000      1.00000000      1.00000000      1.00000000      1.00000000      1.00000000      1.00000000      1.00000000
      1.00000000      1.00000000      1.00000000      1.00000000      1.00000000      1.00000000      1.00000000      1.00000000      1.00000000      1.00000000      1.00000000      1.00000000      1.00000000      1.00000000      1.00000000      1.00000000      1.00000000      1.00000000      1.00000000      1.00000000
      1.00000000      1.00000000      1.00000000      1.00000000      1.00000000      1.00000000      1.00000000      1.00000000      1.00000000      1.00000000      1.00000000      1.00000000      1.00000000      1.00000000      1.00000000      1.00000000      1.00000000      1.00000000      1.00000000      1.00000000
      1.00000000      1.00000000      1.00000000      1.00000000      1.00000000      1.00000000      1.00000000      1.00000000      1.00000000      1.00000000      1.00000000      1.00000000      1.00000000      1.00000000      1.00000000      1.00000000      1.00000000      1.00000000      1.00000000      1.00000000
      1.00000000      1.00000000      1.00000000      1.00000000      1.00000000      1.00000000      1.00000000      1.00000000      1.00000000      1.00000000      1.00000000      1.00000000      1.00000000      1.00000000      1.00000000      1.00000000      1.00000000      1.00000000      1.00000000      1.00000000
      1.00000000      1.00000000      1.00000000      1.00000000      1.00000000      1.00000000      1.00000000      1.00000000</v>
    <i name="NUPDOWN">     -1.00000000</i>
    <i type="logical" name="LSORBIT"> F  </i>
    <v name="SAXIS">      0.00000000      0.00000000      1.00000000</v>
    <i type="logical" name="LSPIRAL"> F  </i>
    <v name="QSPIRAL">      0.00000000      0.00000000      0.00000000</v>
    <i type="logical" name="LZEROZ"> F  </i>
   </separator>
   <separator name="electronic exchange-correlation" >
    <i type="logical" name="LASPH"> F  </i>
    <i type="logical" name="LMETAGGA"> F  </i>
   </separator>
   <separator name="electronic convergence" >
    <i type="int" name="NELM">   200</i>
    <i type="int" name="NELMDL">     0</i>
    <i type="int" name="NELMIN">     2</i>
    <i name="ENINI">    500.00000000</i>
    <separator name="electronic convergence detail" >
     <i type="logical" name="LDIAG"> T  </i>
     <i type="logical" name="LSUBROT"> F  </i>
     <i name="WEIMIN">      0.00000000</i>
     <i name="EBREAK">      0.00000001</i>
     <i name="DEPER">      0.30000000</i>
     <i type="int" name="NRMM">     4</i>
     <i name="TIME">      0.40000000</i>
    </separator>
   </separator>
   <separator name="electronic mixer" >
    <i name="AMIX">      0.40000000</i>
    <i name="BMIX">      1.00000000</i>
    <i name="AMIN">      0.10000000</i>
    <i name="AMIX_MAG">      1.60000000</i>
    <i name="BMIX_MAG">      1.00000000</i>
    <separator name="electronic mixer details" >
     <i type="int" name="IMIX">     4</i>
     <i type="logical" name="MIXFIRST"> F  </i>
     <i type="int" name="MAXMIX">   -45</i>
     <i name="WC">    100.00000000</i>
     <i type="int" name="INIMIX">     1</i>
     <i type="int" name="MIXPRE">     1</i>
     <i type="int" name="MREMOVE">     5</i>
    </separator>
   </separator>
   <separator name="electronic dipolcorrection" >
    <i type="logical" name="LDIPOL"> F  </i>
    <i type="logical" name="LMONO"> F  </i>
    <i type="int" name="IDIPOL">     0</i>
    <i name="EPSILON">      1.00000000</i>
    <v name="DIPOL">   -100.00000000   -100.00000000   -100.00000000</v>
    <i name="EFIELD">      0.00000000</i>
   </separator>
  </separator>
  <separator name="grids" >
   <i type="int" name="NGX">   216</i>
   <i type="int" name="NGY">   216</i>
   <i type="int" name="NGZ">   150</i>
   <i type="int" name="NGXF">   336</i>
   <i type="int" name="NGYF">   336</i>
   <i type="int" name="NGZF">   224</i>
   <i type="logical" name="ADDGRID"> F  </i>
  </separator>
  <separator name="ionic" >
   <i type="int" name="NSW">     0</i>
   <i type="int" name="IBRION">    -1</i>
   <i type="int" name="MDALGO">     0</i>
   <i type="int" name="ISIF">     2</i>
   <i name="PSTRESS">      0.00000000</i>
   <i name="EDIFFG">     -0.01000000</i>
   <i type="int" name="NFREE">     0</i>
   <i name="POTIM">      0.30000000</i>
   <i name="SMASS">     -3.00000000</i>
   <i name="SCALEE">      1.00000000</i>
  </separator>
  <separator name="ionic md" >
   <i name="TEBEG">      0.00010000</i>
   <i name="TEEND">      0.00010000</i>
   <i type="int" name="NBLOCK">     1</i>
   <i type="int" name="KBLOCK">     1</i>
   <i type="int" name="NPACO">   256</i>
   <i name="APACO">     16.00000000</i>
  </separator>
  <separator name="symmetry" >
   <i type="int" name="ISYM">     2</i>
   <i name="SYMPREC">      0.00001000</i>
  </separator>
  <separator name="dos" >
   <i type="int" name="LORBIT">     0</i>
   <v name="RWIGS">     -1.00000000     -1.00000000     -1.00000000     -1.00000000</v>
   <i type="int" name="NEDOS">   301</i>
   <i name="EMIN">     10.00000000</i>
   <i name="EMAX">    -10.00000000</i>
   <i name="EFERMI">      0.00000000</i>
  </separator>
  <separator name="writing" >
   <i type="int" name="NWRITE">     0</i>
   <i type="logical" name="LWAVE"> F  </i>
   <i type="logical" name="LDOWNSAMPLE"> F  </i>
   <i type="logical" name="LCHARG"> F  </i>
   <i type="logical" name="LPARD"> F  </i>
   <i type="logical" name="LVTOT"> F  </i>
   <i type="logical" name="LVHAR"> F  </i>
   <i type="logical" name="LELF"> F  </i>
   <i type="logical" name="LOPTICS"> F  </i>
   <v name="STM">      0.00000000      0.00000000      0.00000000      0.00000000      0.00000000      0.00000000      0.00000000</v>
  </separator>
  <separator name="performance" >
   <i type="int" name="NPAR">    16</i>
   <i type="int" name="NSIM">     4</i>
   <i type="int" name="NBLK">    -1</i>
   <i type="logical" name="LPLANE"> T  </i>
   <i type="logical" name="LSCALAPACK"> T  </i>
   <i type="logical" name="LSCAAWARE"> F  </i>
   <i type="logical" name="LSCALU"> F  </i>
   <i type="logical" name="LASYNC"> F  </i>
   <i type="logical" name="LORBITALREAL"> F  </i>
  </separator>
  <separator name="miscellaneous" >
   <i type="int" name="IDIOT">     3</i>
   <i type="int" name="ISPECIAL">     0</i>
   <i type="logical" name="LMUSIC"> F  </i>
   <v name="POMASS">     16.00000000      1.00000000     14.00100000     12.01100000</v>
   <v name="DARWINR">      0.00000000      0.00000000      0.00000000      0.00000000</v>
   <v name="DARWINV">      1.00000000      1.00000000      1.00000000      1.00000000</v>
   <i type="logical" name="LCORR"> T  </i>
  </separator>
  <i type="logical" name="GGA_COMPAT"> T  </i>
  <i type="logical" name="LBERRY"> F  </i>
  <i type="int" name="ICORELEVEL">     0</i>
  <i type="logical" name="LDAU"> F  </i>
  <i type="int" name="I_CONSTRAINED_M">     0</i>
  <separator name="electronic exchange-correlation" >
   <i type="string" name="GGA">PE</i>
   <i type="int" name="VOSKOWN">     0</i>
   <i type="logical" name="LHFCALC"> F  </i>
   <i type="string" name="PRECFOCK"></i>
   <i type="logical" name="LSYMGRAD"> F  </i>
   <i type="logical" name="LHFONE"> F  </i>
   <i type="logical" name="LRHFCALC"> F  </i>
   <i type="logical" name="LTHOMAS"> F  </i>
   <i type="logical" name="LMODELHF"> F  </i>
   <i name="ENCUT4O">     -1.00000000</i>
   <i type="int" name="EXXOEP">     0</i>
   <i type="int" name="FOURORBIT">     0</i>
   <i name="AEXX">      0.00000000</i>
   <i name="HFALPHA">      0.00000000</i>
   <i name="MCALPHA">      0.00000000</i>
   <i name="ALDAX">      1.00000000</i>
   <i name="AGGAX">      1.00000000</i>
   <i name="ALDAC">      1.00000000</i>
   <i name="AGGAC">      1.00000000</i>
   <i type="int" name="NKREDX">     1</i>
   <i type="int" name="NKREDY">     1</i>
   <i type="int" name="NKREDZ">     1</i>
   <i type="logical" name="SHIFTRED"> F  </i>
   <i type="logical" name="ODDONLY"> F  </i>
   <i type="logical" name="EVENONLY"> F  </i>
   <i type="int" name="LMAXFOCK">     0</i>
   <i type="int" name="NMAXFOCKAE">     0</i>
   <i type="logical" name="LFOCKAEDFT"> F  </i>
   <i name="HFSCREEN">      0.00000000</i>
   <i name="HFSCREENC">      0.00000000</i>
   <i type="int" name="NBANDSGWLOW">     0</i>
  </separator>
  <separator name="vdW DFT" >
   <i type="logical" name="LUSE_VDW"> F  </i>
   <i name="Zab_VDW">     -0.84910000</i>
   <i name="PARAM1">      0.12340000</i>
   <i name="PARAM2">      1.00000000</i>
   <i name="PARAM3">      0.00000000</i>
  </separator>
  <separator name="model GW" >
   <i type="int" name="MODEL_GW">     0</i>
   <i name="MODEL_EPS0">     83.74280750</i>
   <i name="MODEL_ALPHA">      1.00000000</i>
  </separator>
  <separator name="linear response parameters" >
   <i type="logical" name="LEPSILON"> F  </i>
   <i type="logical" name="LRPA"> F  </i>
   <i type="logical" name="LNABLA"> F  </i>
   <i type="logical" name="LVEL"> F  </i>
   <i type="int" name="KINTER">     0</i>
   <i name="CSHIFT">      0.10000000</i>
   <i name="OMEGAMAX">     -1.00000000</i>
   <i name="DEG_THRESHOLD">      0.00200000</i>
   <i name="RTIME">     -0.10000000</i>
   <i name="WPLASMAI">      0.00000000</i>
   <v name="DFIELD">      0.00000000      0.00000000      0.00000000</v>
   <v name="WPLASMA">      0.00000000      0.00000000      0.00000000      0.00000000      0.00000000      0.00000000      0.00000000      0.00000000      0.00000000</v>
  </separator>
  <separator name="orbital magnetization" >
   <i type="logical" name="NUCIND"> F  </i>
   <v name="MAGPOS">      0.00000000      0.00000000      0.00000000</v>
   <i type="logical" name="LNICSALL"> T  </i>
   <i type="logical" name="ORBITALMAG"> F  </i>
   <i type="logical" name="LMAGBLOCH"> F  </i>
   <i type="logical" name="LCHIMAG"> F  </i>
   <i type="logical" name="LGAUGE"> T  </i>
   <i type="int" name="MAGATOM">     0</i>
   <v name="MAGDIPOL">      0.00000000      0.00000000      0.00000000</v>
   <v name="AVECCONST">      0.00000000      0.00000000      0.00000000</v>
  </separator>
  <separator name="response functions" >
   <i type="logical" name="LADDER"> F  </i>
   <i type="logical" name="LRPAFORCE"> F  </i>
   <i type="logical" name="LFXC"> F  </i>
   <i type="logical" name="LHARTREE"> T  </i>
   <i type="int" name="IBSE">     0</i>
   <v type="int" name="KPOINT">    -1     0     0     0</v>
   <i type="logical" name="LTCTE"> F  </i>
   <i type="logical" name="LTETE"> F  </i>
   <i type="logical" name="LTRIPLET"> F  </i>
   <i type="logical" name="LFXCEPS"> F  </i>
   <i type="logical" name="LFXHEG"> F  </i>
   <i type="int" name="NATURALO">     2</i>
   <i type="logical" name="L2ORDER"> F  </i>
   <i type="logical" name="LMP2LT"> F  </i>
   <i type="logical" name="LUSEW"> F  </i>
   <i name="ENCUTGW">     -2.00000000</i>
   <i name="ENCUTGWSOFT">     -2.00000000</i>
   <i name="ENCUTLF">     -1.00000000</i>
   <i type="int" name="LMAXMP2">    -1</i>
   <i name="SCISSOR">      0.00000000</i>
   <i type="int" name="NOMEGA">     0</i>
   <i type="int" name="NOMEGAR">     0</i>
   <i type="int" name="NBANDSGW">    -1</i>
   <i type="int" name="NBANDSO">    -1</i>
   <i type="int" name="NBANDSV">    -1</i>
   <i type="int" name="NELM">   200</i>
   <i type="int" name="NELMHF">     1</i>
   <i type="int" name="DIM">     3</i>
   <i type="int" name="ANTIRES">     0</i>
   <i name="OMEGAMAX">    -30.00000000</i>
   <i name="OMEGAMIN">    -30.00000000</i>
   <i name="OMEGATL">   -200.00000000</i>
   <i type="int" name="OMEGAGRID">   140</i>
   <i name="CSHIFT">     -0.10000000</i>
   <i type="logical" name="SELFENERGY"> F  </i>
   <i type="logical" name="LSPECTRAL"> F  </i>
   <i type="logical" name="LSPECTRALGW"> F  </i>
   <i type="logical" name="LSINGLES"> F  </i>
   <i type="logical" name="LFERMIGW"> F  </i>
   <i type="logical" name="ODDONLYGW"> F  </i>
   <i type="logical" name="EVENONLYGW"> F  </i>
   <i type="int" name="NKREDLFX">     1</i>
   <i type="int" name="NKREDLFY">     1</i>
   <i type="int" name="NKREDLFZ">     1</i>
   <i type="int" name="MAXMEM">  2800</i>
   <i type="int" name="TELESCOPE">     0</i>
   <i type="int" name="TAUPAR">     1</i>
   <i type="int" name="OMEGAPAR">    -1</i>
   <i name="LAMBDA">      1.00000000</i>
  </separator>
  <separator name="External order field" >
   <i name="OFIELD_KAPPA">      0.00000000</i>
   <v name="OFIELD_K">      0.00000000      0.00000000      0.00000000</v>
   <i name="OFIELD_Q6_NEAR">      0.00000000</i>
   <i name="OFIELD_Q6_FAR">      0.00000000</i>
   <i name="OFIELD_A">      0.00000000</i>
  </separator>
  <separator name="solvation model" >
   <i type="logical" name="LSOL"> F  </i>
  </separator>
 </parameters>
 <atominfo>
  <atoms>     108 </atoms>
  <types>       4 </types>
  <array name="atoms" >
   <dimension dim="1">ion</dimension>
   <field type="string">element</field>
   <field type="int">atomtype</field>
   <set>
    <rc><c>O </c><c>   1</c></rc>
    <rc><c>O </c><c>   1</c></rc>
    <rc><c>O </c><c>   1</c></rc>
    <rc><c>O </c><c>   1</c></rc>
    <rc><c>O </c><c>   1</c></rc>
    <rc><c>O </c><c>   1</c></rc>
    <rc><c>H </c><c>   2</c></rc>
    <rc><c>H </c><c>   2</c></rc>
    <rc><c>H </c><c>   2</c></rc>
    <rc><c>H </c><c>   2</c></rc>
    <rc><c>H </c><c>   2</c></rc>
    <rc><c>H </c><c>   2</c></rc>
    <rc><c>H </c><c>   2</c></rc>
    <rc><c>H </c><c>   2</c></rc>
    <rc><c>H </c><c>   2</c></rc>
    <rc><c>H </c><c>   2</c></rc>
    <rc><c>H </c><c>   2</c></rc>
    <rc><c>H </c><c>   2</c></rc>
    <rc><c>H </c><c>   2</c></rc>
    <rc><c>H </c><c>   2</c></rc>
    <rc><c>H </c><c>   2</c></rc>
    <rc><c>H </c><c>   2</c></rc>
    <rc><c>H </c><c>   2</c></rc>
    <rc><c>H </c><c>   2</c></rc>
    <rc><c>H </c><c>   2</c></rc>
    <rc><c>H </c><c>   2</c></rc>
    <rc><c>H </c><c>   2</c></rc>
    <rc><c>H </c><c>   2</c></rc>
    <rc><c>H </c><c>   2</c></rc>
    <rc><c>H </c><c>   2</c></rc>
    <rc><c>H </c><c>   2</c></rc>
    <rc><c>H </c><c>   2</c></rc>
    <rc><c>H </c><c>   2</c></rc>
    <rc><c>H </c><c>   2</c></rc>
    <rc><c>H </c><c>   2</c></rc>
    <rc><c>H </c><c>   2</c></rc>
    <rc><c>H </c><c>   2</c></rc>
    <rc><c>H </c><c>   2</c></rc>
    <rc><c>H </c><c>   2</c></rc>
    <rc><c>N </c><c>   3</c></rc>
    <rc><c>N </c><c>   3</c></rc>
    <rc><c>N </c><c>   3</c></rc>
    <rc><c>N </c><c>   3</c></rc>
    <rc><c>N </c><c>   3</c></rc>
    <rc><c>N </c><c>   3</c></rc>
    <rc><c>N </c><c>   3</c></rc>
    <rc><c>N </c><c>   3</c></rc>
    <rc><c>N </c><c>   3</c></rc>
    <rc><c>C </c><c>   4</c></rc>
    <rc><c>C </c><c>   4</c></rc>
    <rc><c>C </c><c>   4</c></rc>
    <rc><c>C </c><c>   4</c></rc>
    <rc><c>C </c><c>   4</c></rc>
    <rc><c>C </c><c>   4</c></rc>
    <rc><c>C </c><c>   4</c></rc>
    <rc><c>C </c><c>   4</c></rc>
    <rc><c>C </c><c>   4</c></rc>
    <rc><c>C </c><c>   4</c></rc>
    <rc><c>C </c><c>   4</c></rc>
    <rc><c>C </c><c>   4</c></rc>
    <rc><c>C </c><c>   4</c></rc>
    <rc><c>C </c><c>   4</c></rc>
    <rc><c>C </c><c>   4</c></rc>
    <rc><c>C </c><c>   4</c></rc>
    <rc><c>C </c><c>   4</c></rc>
    <rc><c>C </c><c>   4</c></rc>
    <rc><c>C </c><c>   4</c></rc>
    <rc><c>C </c><c>   4</c></rc>
    <rc><c>C </c><c>   4</c></rc>
    <rc><c>C </c><c>   4</c></rc>
    <rc><c>C </c><c>   4</c></rc>
    <rc><c>C </c><c>   4</c></rc>
    <rc><c>C </c><c>   4</c></rc>
    <rc><c>C </c><c>   4</c></rc>
    <rc><c>C </c><c>   4</c></rc>
    <rc><c>C </c><c>   4</c></rc>
    <rc><c>C </c><c>   4</c></rc>
    <rc><c>C </c><c>   4</c></rc>
    <rc><c>C </c><c>   4</c></rc>
    <rc><c>C </c><c>   4</c></rc>
    <rc><c>C </c><c>   4</c></rc>
    <rc><c>C </c><c>   4</c></rc>
    <rc><c>C </c><c>   4</c></rc>
    <rc><c>C </c><c>   4</c></rc>
    <rc><c>C </c><c>   4</c></rc>
    <rc><c>C </c><c>   4</c></rc>
    <rc><c>C </c><c>   4</c></rc>
    <rc><c>C </c><c>   4</c></rc>
    <rc><c>C </c><c>   4</c></rc>
    <rc><c>C </c><c>   4</c></rc>
    <rc><c>C </c><c>   4</c></rc>
    <rc><c>C </c><c>   4</c></rc>
    <rc><c>C </c><c>   4</c></rc>
    <rc><c>C </c><c>   4</c></rc>
    <rc><c>C </c><c>   4</c></rc>
    <rc><c>C </c><c>   4</c></rc>
    <rc><c>C </c><c>   4</c></rc>
    <rc><c>C </c><c>   4</c></rc>
    <rc><c>C </c><c>   4</c></rc>
    <rc><c>C </c><c>   4</c></rc>
    <rc><c>C </c><c>   4</c></rc>
    <rc><c>C </c><c>   4</c></rc>
    <rc><c>C </c><c>   4</c></rc>
    <rc><c>C </c><c>   4</c></rc>
    <rc><c>C </c><c>   4</c></rc>
    <rc><c>C </c><c>   4</c></rc>
    <rc><c>C </c><c>   4</c></rc>
    <rc><c>C </c><c>   4</c></rc>
   </set>
  </array>
  <array name="atomtypes" >
   <dimension dim="1">type</dimension>
   <field type="int">atomspertype</field>
   <field type="string">element</field>
   <field>mass</field>
   <field>valence</field>
   <field type="string">pseudopotential</field>
   <set>
    <rc><c>   6</c><c>O </c><c>     16.00000000</c><c>      6.00000000</c><c>  PAW_PBE O 08Apr2002                   </c></rc>
    <rc><c>  33</c><c>H </c><c>      1.00000000</c><c>      1.00000000</c><c>  PAW_PBE H 15Jun2001                   </c></rc>
    <rc><c>   9</c><c>N </c><c>     14.00100000</c><c>      5.00000000</c><c>  PAW_PBE N 08Apr2002                   </c></rc>
    <rc><c>  60</c><c>C </c><c>     12.01100000</c><c>      4.00000000</c><c>  PAW_PBE C 08Apr2002                   </c></rc>
   </set>
  </array>
 </atominfo>
 <structure name="initialpos" >
  <crystal>
   <varray name="basis" >
    <v>      29.53094694      -0.06652250       0.00000000 </v>
    <v>     -14.82314492      25.55527061       0.00000000 </v>
    <v>       0.00000000       0.00000000      20.00000000 </v>
   </varray>
   <i name="volume">  15073.70535018 </i>
   <varray name="rec_basis" >
    <v>       0.03390709       0.01966755       0.00000000 </v>
    <v>       0.00008826       0.03918207       0.00000000 </v>
    <v>       0.00000000       0.00000000       0.05000000 </v>
   </varray>
  </crystal>
  <varray name="positions" >
   <v>       0.40751778       0.96804091       0.36388303 </v>
   <v>       0.44145532       0.91692146       0.35333187 </v>
   <v>       0.03195751       0.59261646       0.36313580 </v>
   <v>       0.08327608       0.55881749       0.35344268 </v>
   <v>       0.55966301       0.59321937       0.36253406 </v>
   <v>       0.47432813       0.56021575       0.35372821 </v>
   <v>       0.12036575       0.63093088       0.47740257 </v>
   <v>       0.21766383       0.67982688       0.48207748 </v>
   <v>       0.11978429       0.48605412       0.50743393 </v>
   <v>       0.21737507       0.53563105       0.51121798 </v>
   <v>       0.31730189       0.53499932       0.51296629 </v>
   <v>       0.36458600       0.48511481       0.50786168 </v>
   <v>       0.46262540       0.67905963       0.48462971 </v>
   <v>       0.51033234       0.62984775       0.47892624 </v>
   <v>       0.46386966       0.78068583       0.50827795 </v>
   <v>       0.51376899       0.87825687       0.50524823 </v>
   <v>       0.36907133       0.87849446       0.47703714 </v>
   <v>       0.31985910       0.78119723       0.48078825 </v>
   <v>       0.87817550       0.36871151       0.53082402 </v>
   <v>       0.78073547       0.32059934       0.53262799 </v>
   <v>       0.87865593       0.50899951       0.46972282 </v>
   <v>       0.78123901       0.46051730       0.47298395 </v>
   <v>       0.67778540       0.46018415       0.46825557 </v>
   <v>       0.62876851       0.50822266       0.46541185 </v>
   <v>       0.53711363       0.31904218       0.52439489 </v>
   <v>       0.48774632       0.36674406       0.52315854 </v>
   <v>       0.53729109       0.21659546       0.47971696 </v>
   <v>       0.48915359       0.11920789       0.47587736 </v>
   <v>       0.63025764       0.12022980       0.53441825 </v>
   <v>       0.67802888       0.21760840       0.53677429 </v>
   <v>       0.48615980       0.05039637       0.40930915 </v>
   <v>       0.94895553       0.51280302       0.40573156 </v>
   <v>       0.56207592       0.51294071       0.40218683 </v>
   <v>       0.51471663       0.94717178       0.58238697 </v>
   <v>       0.56288700       0.04372062       0.58973115 </v>
   <v>       0.05005355       0.48517132       0.58286637 </v>
   <v>       0.95339357       0.43640964       0.58761808 </v>
   <v>       0.43341856       0.48243970       0.58101789 </v>
   <v>       0.48081522       0.43347683       0.58278803 </v>
   <v>       0.30662569       0.69247894       0.49527103 </v>
   <v>       0.38704824       0.69206669       0.49795729 </v>
   <v>       0.30583134       0.61158258       0.50086482 </v>
   <v>       0.69226723       0.30603978       0.50985240 </v>
   <v>       0.61146426       0.30539549       0.50249126 </v>
   <v>       0.69233472       0.38622008       0.49660605 </v>
   <v>       0.43621063       0.95096711       0.38246750 </v>
   <v>       0.04886096       0.56383990       0.38195593 </v>
   <v>       0.51376217       0.56443030       0.38139725 </v>
   <v>       0.28166321       0.63983784       0.49795069 </v>
   <v>       0.35930721       0.71682919       0.49614938 </v>
   <v>       0.35851619       0.63944130       0.49969077 </v>
   <v>       0.38875706       0.77478532       0.49462966 </v>
   <v>       0.36236941       0.80283399       0.48584183 </v>
   <v>       0.39012688       0.85723277       0.48358216 </v>
   <v>       0.44495388       0.88515483       0.49067259 </v>
   <v>       0.47116996       0.85703932       0.50035126 </v>
   <v>       0.44352377       0.80256536       0.50180739 </v>
   <v>       0.22368025       0.61081121       0.49684742 </v>
   <v>       0.19585895       0.63735500       0.48741254 </v>
   <v>       0.14143451       0.60975815       0.48463208 </v>
   <v>       0.11328634       0.55496504       0.49186216 </v>
   <v>       0.14118444       0.52862880       0.50241989 </v>
   <v>       0.19565452       0.55609487       0.50436334 </v>
   <v>       0.38694766       0.61012360       0.49900895 </v>
   <v>       0.35964499       0.55537334       0.50607692 </v>
   <v>       0.38624445       0.52772606       0.50338258 </v>
   <v>       0.44064775       0.55393602       0.49253223 </v>
   <v>       0.46793627       0.60880257       0.48623315 </v>
   <v>       0.44153028       0.63656179       0.48967967 </v>
   <v>       0.71685288       0.35847734       0.50326421 </v>
   <v>       0.63960772       0.28118174       0.50721973 </v>
   <v>       0.63964102       0.35798473       0.49845151 </v>
   <v>       0.61071369       0.22326275       0.50831406 </v>
   <v>       0.63648941       0.19562443       0.52424271 </v>
   <v>       0.60951934       0.14115897       0.52302029 </v>
   <v>       0.55631502       0.11270492       0.50459349 </v>
   <v>       0.53065723       0.14062019       0.48905533 </v>
   <v>       0.55727514       0.19504088       0.49143294 </v>
   <v>       0.77481187       0.38747500       0.50287204 </v>
   <v>       0.80263150       0.36201890       0.51955039 </v>
   <v>       0.85711097       0.38918572       0.51868254 </v>
   <v>       0.88544272       0.44230471       0.49996536 </v>
   <v>       0.85735959       0.46756606       0.48320735 </v>
   <v>       0.80289617       0.44072865       0.48517345 </v>
   <v>       0.61052453       0.38655915       0.49634025 </v>
   <v>       0.63603240       0.43999739       0.47962667 </v>
   <v>       0.60837372       0.46660982       0.47794932 </v>
   <v>       0.55470965       0.44092786       0.49416709 </v>
   <v>       0.52952056       0.38752247       0.51145078 </v>
   <v>       0.55683835       0.36057660       0.51192601 </v>
   <v>       0.52830955       0.05494050       0.50051130 </v>
   <v>       0.49296682       0.02872223       0.44827058 </v>
   <v>       0.46790738       0.97440733       0.44348807 </v>
   <v>       0.47450791       0.94306857       0.49101790 </v>
   <v>       0.94327715       0.47068843       0.49734429 </v>
   <v>       0.97016302       0.50621337       0.44555090 </v>
   <v>       0.02459476       0.53174162       0.44239921 </v>
   <v>       0.05535206       0.52535642       0.49103749 </v>
   <v>       0.52541790       0.46928746       0.49297127 </v>
   <v>       0.53429410       0.50566818       0.44235688 </v>
   <v>       0.50564344       0.53129478       0.44079108 </v>
   <v>       0.46854864       0.52416998       0.49000671 </v>
   <v>       0.50969242       0.97007419       0.54335949 </v>
   <v>       0.53645522       0.02448782       0.54775817 </v>
   <v>       0.02766168       0.49002935       0.54297030 </v>
   <v>       0.97316715       0.46287714       0.54585144 </v>
   <v>       0.46063366       0.48793978       0.54071885 </v>
   <v>       0.48770618       0.46068676       0.54194750 </v>
  </varray>
 </structure>
 <calculation>
  <scstep>
   <time name="dav"> 1236.10 1250.57</time>
   <time name="total"> 1236.36 1250.85</time>
   <energy>
    <i name="alphaZ">     38.64371586 </i>
    <i name="ewald">  43584.26262573 </i>
    <i name="hartreedc"> -55205.54466124 </i>
    <i name="XCdc">   1263.25357749 </i>
    <i name="pawpsdc">  32694.61065728 </i>
    <i name="pawaedc"> -32760.27601581 </i>
    <i name="eentropy">     -0.00000000 </i>
    <i name="bandstr">  -4598.35318633 </i>
    <i name="atom">  14215.90973903 </i>
    <i name="e_fr_energy">   -767.49354799 </i>
    <i name="e_wo_entrp">   -767.49354799 </i>
    <i name="e_0_energy">   -767.49354799 </i>
   </energy>
  </scstep>
  <scstep>
   <time name="dav"> 1357.10 1373.54</time>
   <time name="total"> 1357.10 1373.54</time>
   <energy>
    <i name="e_fr_energy">   -768.11246533 </i>
    <i name="e_wo_entrp">   -768.11246533 </i>
    <i name="e_0_energy">   -768.11246533 </i>
   </energy>
  </scstep>
  <scstep>
   <time name="dav"> 1484.39 1502.05</time>
   <time name="total"> 1484.39 1502.05</time>
   <energy>
    <i name="e_fr_energy">   -768.13141497 </i>
    <i name="e_wo_entrp">   -768.13141497 </i>
    <i name="e_0_energy">   -768.13141497 </i>
   </energy>
  </scstep>
  <scstep>
   <time name="dav"> 1362.53 1378.49</time>
   <time name="total"> 1362.54 1378.50</time>
   <energy>
    <i name="e_fr_energy">   -768.13174009 </i>
    <i name="e_wo_entrp">   -768.13174009 </i>
    <i name="e_0_energy">   -768.13174009 </i>
   </energy>
  </scstep>
  <scstep>
   <time name="dav"> 1347.28 1363.46</time>
   <time name="total"> 1347.28 1363.46</time>
   <energy>
    <i name="e_fr_energy">   -768.13175682 </i>
    <i name="e_wo_entrp">   -768.13175682 </i>
    <i name="e_0_energy">   -768.13175682 </i>
   </energy>
  </scstep>
  <scstep>
   <time name="dav"> 1038.34 1050.72</time>
   <time name="total"> 1038.35 1050.73</time>
   <energy>
    <i name="alphaZ">     38.64371586 </i>
    <i name="ewald">  43584.26262573 </i>
    <i name="hartreedc"> -55205.54466124 </i>
    <i name="XCdc">   1263.25357749 </i>
    <i name="pawpsdc">  32694.61065728 </i>
    <i name="pawaedc"> -32760.27601581 </i>
    <i name="eentropy">     -0.00000000 </i>
    <i name="bandstr">  -4598.99139562 </i>
    <i name="atom">  14215.90973903 </i>
    <i name="e_fr_energy">   -768.13175728 </i>
    <i name="e_wo_entrp">   -768.13175728 </i>
    <i name="e_0_energy">   -768.13175728 </i>
   </energy>
  </scstep>
  <structure>
   <crystal>
    <varray name="basis" >
     <v>      29.53094694      -0.06652250       0.00000000 </v>
     <v>     -14.82314492      25.55527061       0.00000000 </v>
     <v>       0.00000000       0.00000000      20.00000000 </v>
    </varray>
    <i name="volume">  15073.70535018 </i>
    <varray name="rec_basis" >
     <v>       0.03390709       0.01966755       0.00000000 </v>
     <v>       0.00008826       0.03918207       0.00000000 </v>
     <v>       0.00000000       0.00000000       0.05000000 </v>
    </varray>
   </crystal>
   <varray name="positions" >
    <v>       0.40751778       0.96804091       0.36388303 </v>
    <v>       0.44145532       0.91692146       0.35333187 </v>
    <v>       0.03195751       0.59261646       0.36313580 </v>
    <v>       0.08327608       0.55881749       0.35344268 </v>
    <v>       0.55966301       0.59321937       0.36253406 </v>
    <v>       0.47432813       0.56021575       0.35372821 </v>
    <v>       0.12036575       0.63093088       0.47740257 </v>
    <v>       0.21766383       0.67982688       0.48207748 </v>
    <v>       0.11978429       0.48605412       0.50743393 </v>
    <v>       0.21737507       0.53563105       0.51121798 </v>
    <v>       0.31730189       0.53499932       0.51296629 </v>
    <v>       0.36458600       0.48511481       0.50786168 </v>
    <v>       0.46262540       0.67905963       0.48462971 </v>
    <v>       0.51033234       0.62984775       0.47892624 </v>
    <v>       0.46386966       0.78068583       0.50827795 </v>
    <v>       0.51376899       0.87825687       0.50524823 </v>
    <v>       0.36907133       0.87849446       0.47703714 </v>
    <v>       0.31985910       0.78119723       0.48078825 </v>
    <v>       0.87817550       0.36871151       0.53082402 </v>
    <v>       0.78073547       0.32059934       0.53262799 </v>
    <v>       0.87865593       0.50899951       0.46972282 </v>
    <v>       0.78123901       0.46051730       0.47298395 </v>
    <v>       0.67778540       0.46018415       0.46825557 </v>
    <v>       0.62876851       0.50822266       0.46541185 </v>
    <v>       0.53711363       0.31904218       0.52439489 </v>
    <v>       0.48774632       0.36674406       0.52315854 </v>
    <v>       0.53729109       0.21659546       0.47971696 </v>
    <v>       0.48915359       0.11920789       0.47587736 </v>
    <v>       0.63025764       0.12022980       0.53441825 </v>
    <v>       0.67802888       0.21760840       0.53677429 </v>
    <v>       0.48615980       0.05039637       0.40930915 </v>
    <v>       0.94895553       0.51280302       0.40573156 </v>
    <v>       0.56207592       0.51294071       0.40218683 </v>
    <v>       0.51471663       0.94717178       0.58238697 </v>
    <v>       0.56288700       0.04372062       0.58973115 </v>
    <v>       0.05005355       0.48517132       0.58286637 </v>
    <v>       0.95339357       0.43640964       0.58761808 </v>
    <v>       0.43341856       0.48243970       0.58101789 </v>
    <v>       0.48081522       0.43347683       0.58278803 </v>
    <v>       0.30662569       0.69247894       0.49527103 </v>
    <v>       0.38704824       0.69206669       0.49795729 </v>
    <v>       0.30583134       0.61158258       0.50086482 </v>
    <v>       0.69226723       0.30603978       0.50985240 </v>
    <v>       0.61146426       0.30539549       0.50249126 </v>
    <v>       0.69233472       0.38622008       0.49660605 </v>
    <v>       0.43621063       0.95096711       0.38246750 </v>
    <v>       0.04886096       0.56383990       0.38195593 </v>
    <v>       0.51376217       0.56443030       0.38139725 </v>
    <v>       0.28166321       0.63983784       0.49795069 </v>
    <v>       0.35930721       0.71682919       0.49614938 </v>
    <v>       0.35851619       0.63944130       0.49969077 </v>
    <v>       0.38875706       0.77478532       0.49462966 </v>
    <v>       0.36236941       0.80283399       0.48584183 </v>
    <v>       0.39012688       0.85723277       0.48358216 </v>
    <v>       0.44495388       0.88515483       0.49067259 </v>
    <v>       0.47116996       0.85703932       0.50035126 </v>
    <v>       0.44352377       0.80256536       0.50180739 </v>
    <v>       0.22368025       0.61081121       0.49684742 </v>
    <v>       0.19585895       0.63735500       0.48741254 </v>
    <v>       0.14143451       0.60975815       0.48463208 </v>
    <v>       0.11328634       0.55496504       0.49186216 </v>
    <v>       0.14118444       0.52862880       0.50241989 </v>
    <v>       0.19565452       0.55609487       0.50436334 </v>
    <v>       0.38694766       0.61012360       0.49900895 </v>
    <v>       0.35964499       0.55537334       0.50607692 </v>
    <v>       0.38624445       0.52772606       0.50338258 </v>
    <v>       0.44064775       0.55393602       0.49253223 </v>
    <v>       0.46793627       0.60880257       0.48623315 </v>
    <v>       0.44153028       0.63656179       0.48967967 </v>
    <v>       0.71685288       0.35847734       0.50326421 </v>
    <v>       0.63960772       0.28118174       0.50721973 </v>
    <v>       0.63964102       0.35798473       0.49845151 </v>
    <v>       0.61071369       0.22326275       0.50831406 </v>
    <v>       0.63648941       0.19562443       0.52424271 </v>
    <v>       0.60951934       0.14115897       0.52302029 </v>
    <v>       0.55631502       0.11270492       0.50459349 </v>
    <v>       0.53065723       0.14062019       0.48905533 </v>
    <v>       0.55727514       0.19504088       0.49143294 </v>
    <v>       0.77481187       0.38747500       0.50287204 </v>
    <v>       0.80263150       0.36201890       0.51955039 </v>
    <v>       0.85711097       0.38918572       0.51868254 </v>
    <v>       0.88544272       0.44230471       0.49996536 </v>
    <v>       0.85735959       0.46756606       0.48320735 </v>
    <v>       0.80289617       0.44072865       0.48517345 </v>
    <v>       0.61052453       0.38655915       0.49634025 </v>
    <v>       0.63603240       0.43999739       0.47962667 </v>
    <v>       0.60837372       0.46660982       0.47794932 </v>
    <v>       0.55470965       0.44092786       0.49416709 </v>
    <v>       0.52952056       0.38752247       0.51145078 </v>
    <v>       0.55683835       0.36057660       0.51192601 </v>
    <v>       0.52830955       0.05494050       0.50051130 </v>
    <v>       0.49296682       0.02872223       0.44827058 </v>
    <v>       0.46790738       0.97440733       0.44348807 </v>
    <v>       0.47450791       0.94306857       0.49101790 </v>
    <v>       0.94327715       0.47068843       0.49734429 </v>
    <v>       0.97016302       0.50621337       0.44555090 </v>
    <v>       0.02459476       0.53174162       0.44239921 </v>
    <v>       0.05535206       0.52535642       0.49103749 </v>
    <v>       0.52541790       0.46928746       0.49297127 </v>
    <v>       0.53429410       0.50566818       0.44235688 </v>
    <v>       0.50564344       0.53129478       0.44079108 </v>
    <v>       0.46854864       0.52416998       0.49000671 </v>
    <v>       0.50969242       0.97007419       0.54335949 </v>
    <v>       0.53645522       0.02448782       0.54775817 </v>
    <v>       0.02766168       0.49002935       0.54297030 </v>
    <v>       0.97316715       0.46287714       0.54585144 </v>
    <v>       0.46063366       0.48793978       0.54071885 </v>
    <v>       0.48770618       0.46068676       0.54194750 </v>
   </varray>
  </structure>
  <varray name="forces" >
   <v>       0.00185466      -0.00002992       0.00244469 </v>
   <v>      -0.00183930      -0.00075892       0.00088810 </v>
   <v>       0.00608278       0.00406316      -0.00300821 </v>
   <v>       0.00265789       0.00097938       0.00145317 </v>
   <v>       0.00179473      -0.00135836       0.00183817 </v>
   <v>      -0.00295951       0.00462830      -0.00529122 </v>
   <v>      -0.00031530      -0.00149096       0.00261460 </v>
   <v>       0.00035783       0.00144833       0.00074349 </v>
   <v>      -0.00067333       0.00003231       0.00097378 </v>
   <v>      -0.00075208       0.00088695      -0.00093214 </v>
   <v>       0.00152407       0.00012263      -0.00188517 </v>
   <v>      -0.00166953       0.00120672      -0.00203670 </v>
   <v>      -0.00040765      -0.00359609       0.00183334 </v>
   <v>      -0.00028237       0.00277790       0.00101933 </v>
   <v>      -0.00129291       0.00210555      -0.00149086 </v>
   <v>      -0.00077901       0.00172894      -0.00119086 </v>
   <v>       0.00468288      -0.00382535       0.00078152 </v>
   <v>      -0.00033798      -0.00043746      -0.00056165 </v>
   <v>      -0.00182710       0.00058468      -0.00042940 </v>
   <v>      -0.00018929       0.00075191      -0.00002619 </v>
   <v>       0.00093160      -0.00108594       0.00267810 </v>
   <v>       0.00053205       0.00055982       0.00174412 </v>
   <v>      -0.00014615      -0.00049202       0.00022619 </v>
   <v>      -0.00041345      -0.00249418       0.00069584 </v>
   <v>      -0.00087462      -0.00025335      -0.00105211 </v>
   <v>      -0.00136379      -0.00142951      -0.00094914 </v>
   <v>      -0.00041338      -0.00225067       0.00088643 </v>
   <v>      -0.00096821      -0.00045378       0.00058556 </v>
   <v>       0.00128160       0.00111573       0.00045156 </v>
   <v>       0.00029188       0.00109525      -0.00000459 </v>
   <v>      -0.00034329       0.00117844      -0.00104708 </v>
   <v>       0.00056678       0.00443225      -0.00109602 </v>
   <v>       0.00353700       0.00040982       0.00485177 </v>
   <v>      -0.00058446       0.00134998      -0.00135553 </v>
   <v>       0.00083759      -0.00049974       0.00086008 </v>
   <v>       0.00088609      -0.00015066      -0.00153396 </v>
   <v>      -0.00018440      -0.00219453      -0.00203177 </v>
   <v>       0.00168308      -0.00092315      -0.00379097 </v>
   <v>      -0.00193568      -0.00105123       0.00168261 </v>
   <v>      -0.00040365       0.00141214      -0.00183385 </v>
   <v>      -0.00071054       0.00407242      -0.00155680 </v>
   <v>      -0.00102840       0.00139211       0.00061080 </v>
   <v>       0.00007070      -0.00134191       0.00129452 </v>
   <v>       0.00163775      -0.00409579      -0.00014467 </v>
   <v>      -0.00145449      -0.00195761      -0.00244653 </v>
   <v>      -0.00029228      -0.00200275      -0.00301359 </v>
   <v>      -0.00336515       0.00401157      -0.00113747 </v>
   <v>       0.00490972       0.00067531       0.00589799 </v>
   <v>       0.00049885      -0.00181182       0.00028304 </v>
   <v>      -0.00265757      -0.00008505      -0.00248354 </v>
   <v>       0.00152971       0.00016013      -0.00008848 </v>
   <v>       0.00056747      -0.00257751      -0.00004953 </v>
   <v>      -0.00193338      -0.00306980       0.00033150 </v>
   <v>      -0.00194272       0.00127856      -0.00007010 </v>
   <v>       0.00363051       0.00189001      -0.00081617 </v>
   <v>      -0.00142851      -0.00242123      -0.00056790 </v>
   <v>      -0.00033339       0.00209887      -0.00076419 </v>
   <v>       0.00024884      -0.00048763       0.00122710 </v>
   <v>      -0.00082972      -0.00129607       0.00071939 </v>
   <v>       0.00107535      -0.00003372       0.00136887 </v>
   <v>       0.00032807      -0.00067745       0.00064184 </v>
   <v>      -0.00011415       0.00042687      -0.00002599 </v>
   <v>       0.00027452       0.00049515      -0.00037425 </v>
   <v>      -0.00006858      -0.00104180       0.00026875 </v>
   <v>      -0.00117529      -0.00002526      -0.00159779 </v>
   <v>       0.00079274      -0.00131806      -0.00187621 </v>
   <v>       0.00127415       0.00183647       0.00031016 </v>
   <v>      -0.00150550      -0.00121522      -0.00019443 </v>
   <v>       0.00218952      -0.00288804       0.00086827 </v>
   <v>       0.00176312      -0.00058958      -0.00005412 </v>
   <v>      -0.00240554       0.00048819       0.00136138 </v>
   <v>      -0.00027504       0.00319178      -0.00235100 </v>
   <v>       0.00094086       0.00044694      -0.00040021 </v>
   <v>      -0.00010465      -0.00052819      -0.00051962 </v>
   <v>      -0.00230346       0.00158653      -0.00115985 </v>
   <v>       0.00087060       0.00133679      -0.00096712 </v>
   <v>      -0.00101522      -0.00236362       0.00003184 </v>
   <v>      -0.00089372       0.00059655      -0.00018775 </v>
   <v>      -0.00150149      -0.00031131       0.00095029 </v>
   <v>       0.00104565       0.00048583      -0.00127153 </v>
   <v>      -0.00176666       0.00051945      -0.00170330 </v>
   <v>       0.00084480      -0.00051205       0.00221374 </v>
   <v>       0.00137005       0.00073248      -0.00034899 </v>
   <v>      -0.00187069       0.00080520      -0.00065555 </v>
   <v>       0.00058633       0.00149093      -0.00174370 </v>
   <v>      -0.00118278      -0.00028173       0.00141705 </v>
   <v>       0.00063905      -0.00188833       0.00132998 </v>
   <v>      -0.00204026       0.00173175      -0.00030981 </v>
   <v>      -0.00095654      -0.00050843       0.00069073 </v>
   <v>      -0.00434918      -0.00062476       0.00043287 </v>
   <v>       0.00108896      -0.00158867       0.00107449 </v>
   <v>       0.00004555      -0.00090029       0.00024022 </v>
   <v>       0.00034491       0.00341166      -0.00088806 </v>
   <v>      -0.00018180      -0.00063096       0.00059948 </v>
   <v>      -0.00136927      -0.00022812       0.00210867 </v>
   <v>       0.00232844      -0.00069230       0.00097557 </v>
   <v>      -0.00097463      -0.00149531       0.00056859 </v>
   <v>       0.00228838      -0.00103270      -0.00165731 </v>
   <v>       0.00093303       0.00001736       0.00011729 </v>
   <v>      -0.00039576       0.00123288      -0.00005965 </v>
   <v>      -0.00214633       0.00191148       0.00409709 </v>
   <v>       0.00009121       0.00019756       0.00026336 </v>
   <v>      -0.00109145      -0.00151573       0.00075749 </v>
   <v>      -0.00110435       0.00183114      -0.00233899 </v>
   <v>       0.00515496      -0.00120384       0.00228604 </v>
   <v>      -0.00281741      -0.00085999       0.00110907 </v>
   <v>      -0.00033068      -0.00097301      -0.00094179 </v>
   <v>       0.00200675      -0.00137070       0.00061349 </v>
  </varray>
  <varray name="stress" >
   <v>       0.00237525      -0.00038701       0.00550206 </v>
   <v>      -0.00038701      -0.00394234      -0.01275773 </v>
   <v>       0.00550206      -0.01275773      -0.16889027 </v>
  </varray>
  <energy>
   <i name="e_fr_energy">   -770.30894549 </i>
   <i name="e_wo_entrp">   -770.30894549 </i>
   <i name="e_0_energy">     -0.00000000 </i>
  </energy>
  <time name="totalsc"> 9220.81 9334.81</time>
  <eigenvalues>
   <array>
    <dimension dim="1">band</dimension>
    <dimension dim="2">kpoint</dimension>
    <dimension dim="3">spin</dimension>
    <field>eigene</field>
    <field>occ</field>
    <set>
     <set comment="spin 1">
      <set comment="kpoint 1">
       <r>  -30.5697    1.0000 </r>
       <r>  -30.5646    1.0000 </r>
       <r>  -30.5547    1.0000 </r>
       <r>  -26.1918    1.0000 </r>
       <r>  -26.1849    1.0000 </r>
       <r>  -26.1748    1.0000 </r>
       <r>  -25.4411    1.0000 </r>
       <r>  -25.2774    1.0000 </r>
       <r>  -22.5364    1.0000 </r>
       <r>  -22.5335    1.0000 </r>
       <r>  -22.3843    1.0000 </r>
       <r>  -22.3836    1.0000 </r>
       <r>  -22.2958    1.0000 </r>
       <r>  -22.2626    1.0000 </r>
       <r>  -22.2591    1.0000 </r>
       <r>  -21.5790    1.0000 </r>
       <r>  -21.5120    1.0000 </r>
       <r>  -21.5111    1.0000 </r>
       <r>  -21.2488    1.0000 </r>
       <r>  -21.1893    1.0000 </r>
       <r>  -21.1821    1.0000 </r>
       <r>  -20.1374    1.0000 </r>
       <r>  -20.1337    1.0000 </r>
       <r>  -20.1200    1.0000 </r>
       <r>  -19.7018    1.0000 </r>
       <r>  -19.6996    1.0000 </r>
       <r>  -19.6762    1.0000 </r>
       <r>  -19.1255    1.0000 </r>
       <r>  -19.1226    1.0000 </r>
       <r>  -18.9260    1.0000 </r>
       <r>  -18.6495    1.0000 </r>
       <r>  -18.6291    1.0000 </r>
       <r>  -18.6093    1.0000 </r>
       <r>  -18.4967    1.0000 </r>
       <r>  -18.4887    1.0000 </r>
       <r>  -18.4626    1.0000 </r>
       <r>  -18.3349    1.0000 </r>
       <r>  -18.2986    1.0000 </r>
       <r>  -18.0812    1.0000 </r>
       <r>  -17.3055    1.0000 </r>
       <r>  -17.2983    1.0000 </r>
       <r>  -17.1860    1.0000 </r>
       <r>  -17.0469    1.0000 </r>
       <r>  -17.0102    1.0000 </r>
       <r>  -16.3811    1.0000 </r>
       <r>  -16.3787    1.0000 </r>
       <r>  -16.2176    1.0000 </r>
       <r>  -15.6231    1.0000 </r>
       <r>  -15.5333    1.0000 </r>
       <r>  -15.3527    1.0000 </r>
       <r>  -15.3038    1.0000 </r>
       <r>  -15.2265    1.0000 </r>
       <r>  -15.1302    1.0000 </r>
       <r>  -15.0281    1.0000 </r>
       <r>  -14.9941    1.0000 </r>
       <r>  -14.9526    1.0000 </r>
       <r>  -14.7042    1.0000 </r>
       <r>  -14.6507    1.0000 </r>
       <r>  -14.4568    1.0000 </r>
       <r>  -14.2700    1.0000 </r>
       <r>  -14.2574    1.0000 </r>
       <r>  -14.1557    1.0000 </r>
       <r>  -14.0417    1.0000 </r>
       <r>  -14.0026    1.0000 </r>
       <r>  -13.5012    1.0000 </r>
       <r>  -13.4509    1.0000 </r>
       <r>  -13.4429    1.0000 </r>
       <r>  -13.4135    1.0000 </r>
       <r>  -13.3115    1.0000 </r>
       <r>  -13.2382    1.0000 </r>
       <r>  -13.1262    1.0000 </r>
       <r>  -12.9563    1.0000 </r>
       <r>  -12.9464    1.0000 </r>
       <r>  -12.8807    1.0000 </r>
       <r>  -12.6830    1.0000 </r>
       <r>  -12.6715    1.0000 </r>
       <r>  -12.4138    1.0000 </r>
       <r>  -12.3964    1.0000 </r>
       <r>  -12.3934    1.0000 </r>
       <r>  -12.3258    1.0000 </r>
       <r>  -12.3138    1.0000 </r>
       <r>  -12.3095    1.0000 </r>
       <r>  -11.7873    1.0000 </r>
       <r>  -11.6965    1.0000 </r>
       <r>  -11.6907    1.0000 </r>
       <r>  -11.6259    1.0000 </r>
       <r>  -11.6054    1.0000 </r>
       <r>  -11.5685    1.0000 </r>
       <r>  -11.3292    1.0000 </r>
       <r>  -11.2787    1.0000 </r>
       <r>  -11.2653    1.0000 </r>
       <r>  -11.1441    1.0000 </r>
       <r>  -11.0077    1.0000 </r>
       <r>  -11.0042    1.0000 </r>
       <r>  -10.9719    1.0000 </r>
       <r>  -10.9471    1.0000 </r>
       <r>  -10.9204    1.0000 </r>
       <r>  -10.8368    1.0000 </r>
       <r>  -10.8080    1.0000 </r>
       <r>  -10.8043    1.0000 </r>
       <r>  -10.7781    1.0000 </r>
       <r>  -10.7606    1.0000 </r>
       <r>  -10.7533    1.0000 </r>
       <r>  -10.7406    1.0000 </r>
       <r>  -10.7253    1.0000 </r>
       <r>  -10.3317    1.0000 </r>
       <r>  -10.3128    1.0000 </r>
       <r>  -10.2585    1.0000 </r>
       <r>  -10.2121    1.0000 </r>
       <r>  -10.2079    1.0000 </r>
       <r>  -10.1188    1.0000 </r>
       <r>  -10.1063    1.0000 </r>
       <r>  -10.1051    1.0000 </r>
       <r>  -10.0586    1.0000 </r>
       <r>   -9.7150    1.0000 </r>
       <r>   -9.7064    1.0000 </r>
       <r>   -9.6109    1.0000 </r>
       <r>   -9.5798    1.0000 </r>
       <r>   -9.5736    1.0000 </r>
       <r>   -9.4738    1.0000 </r>
       <r>   -9.4471    1.0000 </r>
       <r>   -9.3224    1.0000 </r>
       <r>   -9.3093    1.0000 </r>
       <r>   -9.2996    1.0000 </r>
       <r>   -9.1287    1.0000 </r>
       <r>   -9.1054    1.0000 </r>
       <r>   -9.0900    1.0000 </r>
       <r>   -8.9076    1.0000 </r>
       <r>   -8.8235    1.0000 </r>
       <r>   -8.7251    1.0000 </r>
       <r>   -8.5863    1.0000 </r>
       <r>   -8.5789    1.0000 </r>
       <r>   -8.5513    1.0000 </r>
       <r>   -8.4995    1.0000 </r>
       <r>   -8.4181    1.0000 </r>
       <r>   -8.3936    1.0000 </r>
       <r>   -8.3626    1.0000 </r>
       <r>   -8.3138    1.0000 </r>
       <r>   -8.2761    1.0000 </r>
       <r>   -8.2606    1.0000 </r>
       <r>   -8.1933    1.0000 </r>
       <r>   -8.1863    1.0000 </r>
       <r>   -8.1566    1.0000 </r>
       <r>   -8.0775    1.0000 </r>
       <r>   -8.0690    1.0000 </r>
       <r>   -8.0660    1.0000 </r>
       <r>   -7.4915    1.0000 </r>
       <r>   -7.4584    1.0000 </r>
       <r>   -7.4456    1.0000 </r>
       <r>   -7.3916    1.0000 </r>
       <r>   -7.2461    1.0000 </r>
       <r>   -7.2434    1.0000 </r>
       <r>   -7.1348    1.0000 </r>
       <r>   -7.1040    1.0000 </r>
       <r>   -7.0982    1.0000 </r>
       <r>   -6.8627    1.0000 </r>
       <r>   -6.8448    1.0000 </r>
       <r>   -6.8344    1.0000 </r>
       <r>   -6.5228    1.0000 </r>
       <r>   -6.5149    1.0000 </r>
       <r>   -6.5120    1.0000 </r>
       <r>   -6.3608    1.0000 </r>
       <r>   -6.3449    1.0000 </r>
       <r>   -6.3448    1.0000 </r>
       <r>   -6.3325    1.0000 </r>
       <r>   -6.2916    1.0000 </r>
       <r>   -6.2860    1.0000 </r>
       <r>   -6.2434    1.0000 </r>
       <r>   -6.1670    1.0000 </r>
       <r>   -6.1537    1.0000 </r>
       <r>   -6.0110    1.0000 </r>
       <r>   -6.0035    1.0000 </r>
       <r>   -5.8471    1.0000 </r>
       <r>   -5.8451    1.0000 </r>
       <r>   -5.7432    1.0000 </r>
       <r>   -5.7206    1.0000 </r>
       <r>   -5.7125    1.0000 </r>
       <r>   -3.1952    0.0000 </r>
       <r>   -3.1890    0.0000 </r>
       <r>   -3.1553    0.0000 </r>
       <r>   -2.9568    0.0000 </r>
       <r>   -2.9535    0.0000 </r>
       <r>   -2.6517    0.0000 </r>
       <r>   -2.6488    0.0000 </r>
       <r>   -2.3404    0.0000 </r>
       <r>   -1.6622    0.0000 </r>
       <r>   -1.6611    0.0000 </r>
       <r>   -1.5484    0.0000 </r>
       <r>   -1.5098    0.0000 </r>
       <r>   -1.4592    0.0000 </r>
       <r>   -1.4419    0.0000 </r>
       <r>   -1.3536    0.0000 </r>
       <r>   -1.3127    0.0000 </r>
       <r>   -1.3022    0.0000 </r>
       <r>   -1.1730    0.0000 </r>
       <r>   -1.1516    0.0000 </r>
       <r>   -1.1413    0.0000 </r>
       <r>   -0.7248    0.0000 </r>
       <r>   -0.4523    0.0000 </r>
       <r>   -0.3174    0.0000 </r>
       <r>   -0.2948    0.0000 </r>
       <r>   -0.2749    0.0000 </r>
       <r>   -0.2584    0.0000 </r>
       <r>   -0.2245    0.0000 </r>
       <r>   -0.0718    0.0000 </r>
       <r>   -0.0117    0.0000 </r>
       <r>    0.0629    0.0000 </r>
       <r>    0.0974    0.0000 </r>
       <r>    0.1596    0.0000 </r>
       <r>    0.2161    0.0000 </r>
       <r>    0.2310    0.0000 </r>
       <r>    0.2666    0.0000 </r>
       <r>    0.2985    0.0000 </r>
       <r>    0.3478    0.0000 </r>
       <r>    0.4030    0.0000 </r>
       <r>    0.4161    0.0000 </r>
       <r>    0.4391    0.0000 </r>
       <r>    0.4589    0.0000 </r>
       <r>    0.4881    0.0000 </r>
       <r>    0.5059    0.0000 </r>
       <r>    0.5857    0.0000 </r>
       <r>    0.6183    0.0000 </r>
       <r>    0.6492    0.0000 </r>
       <r>    0.6691    0.0000 </r>
       <r>    0.7064    0.0000 </r>
       <r>    0.7361    0.0000 </r>
       <r>    0.7444    0.0000 </r>
       <r>    0.7669    0.0000 </r>
       <r>    0.8014    0.0000 </r>
       <r>    0.8532    0.0000 </r>
       <r>    0.8720    0.0000 </r>
       <r>    0.8787    0.0000 </r>
       <r>    0.8861    0.0000 </r>
       <r>    0.8999    0.0000 </r>
       <r>    0.9288    0.0000 </r>
       <r>    0.9337    0.0000 </r>
       <r>    0.9721    0.0000 </r>
       <r>    0.9937    0.0000 </r>
       <r>    1.0118    0.0000 </r>
       <r>    1.0276    0.0000 </r>
      </set>
      <set comment="kpoint 2">
       <r>  -30.5697    1.0000 </r>
       <r>  -30.5646    1.0000 </r>
       <r>  -30.5547    1.0000 </r>
       <r>  -26.1918    1.0000 </r>
       <r>  -26.1849    1.0000 </r>
       <r>  -26.1748    1.0000 </r>
       <r>  -25.4411    1.0000 </r>
       <r>  -25.2774    1.0000 </r>
       <r>  -22.5364    1.0000 </r>
       <r>  -22.5335    1.0000 </r>
       <r>  -22.3843    1.0000 </r>
       <r>  -22.3836    1.0000 </r>
       <r>  -22.2957    1.0000 </r>
       <r>  -22.2627    1.0000 </r>
       <r>  -22.2591    1.0000 </r>
       <r>  -21.5790    1.0000 </r>
       <r>  -21.5121    1.0000 </r>
       <r>  -21.5111    1.0000 </r>
       <r>  -21.2487    1.0000 </r>
       <r>  -21.1894    1.0000 </r>
       <r>  -21.1821    1.0000 </r>
       <r>  -20.1374    1.0000 </r>
       <r>  -20.1337    1.0000 </r>
       <r>  -20.1200    1.0000 </r>
       <r>  -19.7018    1.0000 </r>
       <r>  -19.6996    1.0000 </r>
       <r>  -19.6762    1.0000 </r>
       <r>  -19.1253    1.0000 </r>
       <r>  -19.1226    1.0000 </r>
       <r>  -18.9264    1.0000 </r>
       <r>  -18.6493    1.0000 </r>
       <r>  -18.6291    1.0000 </r>
       <r>  -18.6093    1.0000 </r>
       <r>  -18.4967    1.0000 </r>
       <r>  -18.4885    1.0000 </r>
       <r>  -18.4626    1.0000 </r>
       <r>  -18.3349    1.0000 </r>
       <r>  -18.2984    1.0000 </r>
       <r>  -18.0816    1.0000 </r>
       <r>  -17.3055    1.0000 </r>
       <r>  -17.2983    1.0000 </r>
       <r>  -17.1863    1.0000 </r>
       <r>  -17.0460    1.0000 </r>
       <r>  -17.0102    1.0000 </r>
       <r>  -16.3824    1.0000 </r>
       <r>  -16.3810    1.0000 </r>
       <r>  -16.2138    1.0000 </r>
       <r>  -15.6231    1.0000 </r>
       <r>  -15.5339    1.0000 </r>
       <r>  -15.3529    1.0000 </r>
       <r>  -15.3044    1.0000 </r>
       <r>  -15.2277    1.0000 </r>
       <r>  -15.1287    1.0000 </r>
       <r>  -15.0299    1.0000 </r>
       <r>  -14.9925    1.0000 </r>
       <r>  -14.9514    1.0000 </r>
       <r>  -14.7042    1.0000 </r>
       <r>  -14.6511    1.0000 </r>
       <r>  -14.4572    1.0000 </r>
       <r>  -14.2700    1.0000 </r>
       <r>  -14.2575    1.0000 </r>
       <r>  -14.1554    1.0000 </r>
       <r>  -14.0417    1.0000 </r>
       <r>  -14.0027    1.0000 </r>
       <r>  -13.5012    1.0000 </r>
       <r>  -13.4509    1.0000 </r>
       <r>  -13.4429    1.0000 </r>
       <r>  -13.4134    1.0000 </r>
       <r>  -13.3113    1.0000 </r>
       <r>  -13.2383    1.0000 </r>
       <r>  -13.1266    1.0000 </r>
       <r>  -12.9562    1.0000 </r>
       <r>  -12.9463    1.0000 </r>
       <r>  -12.8807    1.0000 </r>
       <r>  -12.6829    1.0000 </r>
       <r>  -12.6714    1.0000 </r>
       <r>  -12.4148    1.0000 </r>
       <r>  -12.3952    1.0000 </r>
       <r>  -12.3934    1.0000 </r>
       <r>  -12.3258    1.0000 </r>
       <r>  -12.3138    1.0000 </r>
       <r>  -12.3094    1.0000 </r>
       <r>  -11.7887    1.0000 </r>
       <r>  -11.6968    1.0000 </r>
[...]
       <r>   -26.7016     0.0000     6.0000 </r>
       <r>   -26.5856     0.0000     6.0000 </r>
       <r>   -26.4697     0.0000     6.0000 </r>
       <r>   -26.3537     0.0000     6.0000 </r>
       <r>   -26.2378     0.0000     6.0000 </r>
       <r>   -26.1219    51.7509    12.0000 </r>
       <r>   -26.0059     0.0000    12.0000 </r>
       <r>   -25.8900     0.0000    12.0000 </r>
       <r>   -25.7740     0.0000    12.0000 </r>
       <r>   -25.6581     0.0000    12.0000 </r>
       <r>   -25.5422     0.0000    12.0000 </r>
       <r>   -25.4262    16.9413    13.9642 </r>
       <r>   -25.3103     0.0000    14.0000 </r>
       <r>   -25.1943     0.0000    16.0000 </r>
       <r>   -25.0784     0.0000    16.0000 </r>
       <r>   -24.9625     0.0000    16.0000 </r>
       <r>   -24.8465     0.0000    16.0000 </r>
       <r>   -24.7306     0.0000    16.0000 </r>
       <r>   -24.6146     0.0000    16.0000 </r>
       <r>   -24.4987     0.0000    16.0000 </r>
       <r>   -24.3828     0.0000    16.0000 </r>
       <r>   -24.2668     0.0000    16.0000 </r>
       <r>   -24.1509     0.0000    16.0000 </r>
       <r>   -24.0349     0.0000    16.0000 </r>
       <r>   -23.9190     0.0000    16.0000 </r>
       <r>   -23.8031     0.0000    16.0000 </r>
       <r>   -23.6871     0.0000    16.0000 </r>
       <r>   -23.5712     0.0000    16.0000 </r>
       <r>   -23.4552     0.0000    16.0000 </r>
       <r>   -23.3393     0.0000    16.0000 </r>
       <r>   -23.2234     0.0000    16.0000 </r>
       <r>   -23.1074     0.0000    16.0000 </r>
       <r>   -22.9915     0.0000    16.0000 </r>
       <r>   -22.8755     0.0000    16.0000 </r>
       <r>   -22.7596     0.0000    16.0000 </r>
       <r>   -22.6437     0.0000    16.0000 </r>
       <r>   -22.5277    28.9861    19.3606 </r>
       <r>   -22.4118     0.0024    20.0003 </r>
       <r>   -22.2958     2.7775    24.3220 </r>
       <r>   -22.1799     5.1751    30.0000 </r>
       <r>   -22.0640     0.0000    30.0000 </r>
       <r>   -21.9480     0.0000    30.0000 </r>
       <r>   -21.8321     0.0000    30.0000 </r>
       <r>   -21.7161     0.0000    30.0000 </r>
       <r>   -21.6002     0.0022    30.0003 </r>
       <r>   -21.4843    39.5308    35.9999 </r>
       <r>   -21.3683     0.0000    36.0000 </r>
       <r>   -21.2524     0.7313    36.0848 </r>
       <r>   -21.1364    34.5006    42.0000 </r>
       <r>   -21.0205     0.0000    42.0000 </r>
       <r>   -20.9046     0.0000    42.0000 </r>
       <r>   -20.7886     0.0000    42.0000 </r>
       <r>   -20.6727     0.0000    42.0000 </r>
       <r>   -20.5567     0.0000    42.0000 </r>
       <r>   -20.4408     0.0000    42.0000 </r>
       <r>   -20.3248     0.0000    42.0000 </r>
       <r>   -20.2089     0.0000    42.0000 </r>
       <r>   -20.0930    51.7503    47.9999 </r>
       <r>   -19.9770     0.0000    48.0000 </r>
       <r>   -19.8611     0.0000    48.0000 </r>
       <r>   -19.7451     0.0000    48.0000 </r>
       <r>   -19.6292    51.7509    54.0000 </r>
       <r>   -19.5133     0.0000    54.0000 </r>
       <r>   -19.3973     0.0000    54.0000 </r>
       <r>   -19.2814     0.0000    54.0000 </r>
       <r>   -19.1654     0.0000    54.0000 </r>
       <r>   -19.0495    34.0597    57.9489 </r>
       <r>   -18.9336    11.9691    59.8544 </r>
       <r>   -18.8176     0.0000    60.0000 </r>
       <r>   -18.7017     0.0000    60.0000 </r>
       <r>   -18.5857    51.7290    65.9975 </r>
       <r>   -18.4698    32.9332    69.8183 </r>
       <r>   -18.3539     0.0151    72.0018 </r>
       <r>   -18.2379    18.9843    75.3677 </r>
       <r>   -18.1220    14.0569    77.6298 </r>
       <r>   -18.0060     1.1500    78.0000 </r>
       <r>   -17.8901     0.0000    78.0000 </r>
       <r>   -17.7742     0.0000    78.0000 </r>
       <r>   -17.6582     0.0000    78.0000 </r>
       <r>   -17.5423     0.0000    78.0000 </r>
       <r>   -17.4263     0.0000    78.0000 </r>
       <r>   -17.3104     3.6381    78.4218 </r>
       <r>   -17.1945    10.6192    83.2312 </r>
       <r>   -17.0785     0.0000    84.0000 </r>
       <r>   -16.9626    16.3372    86.3775 </r>
       <r>   -16.8466    12.7940    88.0000 </r>
       <r>   -16.7307     0.0000    88.0000 </r>
       <r>   -16.6148    12.4331    89.4415 </r>
       <r>   -16.4988     1.2678    89.7137 </r>
       <r>   -16.3829     8.1138    90.7074 </r>
       <r>   -16.2669     0.0000    92.0000 </r>
       <r>   -16.1510     1.6266    92.1886 </r>
       <r>   -16.0351     1.0753    92.3747 </r>
       <r>   -15.9191     3.4325    92.8313 </r>
       <r>   -15.8032     5.1751    94.0000 </r>
       <r>   -15.6872    11.4255    95.4913 </r>
       <r>   -15.5713     8.0535    96.5337 </r>
       <r>   -15.4554     1.0063    98.0000 </r>
       <r>   -15.3394    20.9334   100.6603 </r>
       <r>   -15.2235    16.0383   103.4595 </r>
       <r>   -15.1075    17.3359   106.0099 </r>
       <r>   -14.9916    13.8436   108.4384 </r>
       <r>   -14.8757    11.3553   109.9832 </r>
       <r>   -14.7597    14.9550   112.4172 </r>
       <r>   -14.6438    15.0098   114.7069 </r>
       <r>   -14.5278     9.1755   116.1805 </r>
       <r>   -14.4119     4.1441   118.0971 </r>
       <r>   -14.2960     9.1944   119.4660 </r>
       <r>   -14.1800    17.2505   122.0000 </r>
       <r>   -14.0641    15.4593   123.9757 </r>
       <r>   -13.9481    15.0940   128.0000 </r>
       <r>   -13.8322     0.0000   128.0000 </r>
       <r>   -13.7163     0.0000   128.0000 </r>
       <r>   -13.6003     0.0000   128.0000 </r>
       <r>   -13.4844    16.8651   129.9553 </r>
       <r>   -13.3684    32.7684   135.9992 </r>
       <r>   -13.2525    29.1929   139.3846 </r>
       <r>   -13.1366    15.6315   141.8123 </r>
       <r>   -13.0206     0.0000   142.0000 </r>
       <r>   -12.9047    36.0252   146.1768 </r>
       <r>   -12.7887     0.0000   148.0000 </r>
       <r>   -12.6728    17.0140   149.9726 </r>
       <r>   -12.5569     0.0000   152.0000 </r>
       <r>   -12.4409     5.7477   152.6664 </r>
       <r>   -12.3250    38.1223   158.7699 </r>
       <r>   -12.2090    11.3564   164.0000 </r>
       <r>   -12.0931     0.0000   164.0000 </r>
       <r>   -11.9772     0.0739   164.0086 </r>
       <r>   -11.8612     3.4665   165.7019 </r>
       <r>   -11.7453     5.9589   166.4909 </r>
       <r>   -11.6293    25.2285   170.6250 </r>
       <r>   -11.5134    15.2589   173.9025 </r>
       <r>   -11.3975    13.2252   176.0000 </r>
       <r>   -11.2815    37.9362   180.6817 </r>
       <r>   -11.1656     0.1005   182.0117 </r>
       <r>   -11.0496     1.1980   184.1389 </r>
       <r>   -10.9337    42.8335   190.8328 </r>
       <r>   -10.8178    35.6617   196.8180 </r>
       <r>   -10.7018    57.9407   208.1843 </r>
       <r>   -10.5859     6.2490   209.0578 </r>
       <r>   -10.4699     4.1899   210.4858 </r>
       <r>   -10.3540     2.1365   211.6810 </r>
       <r>   -10.2381    35.9346   217.8163 </r>
       <r>   -10.1221    17.1349   221.9866 </r>
       <r>   -10.0062     1.3611   226.1578 </r>
       <r>    -9.8902     1.1592   226.3677 </r>
       <r>    -9.7743     5.1947   227.0356 </r>
       <r>    -9.6584    41.7565   232.8413 </r>
       <r>    -9.5424    31.6301   237.9839 </r>
       <r>    -9.4265    38.8698   242.7399 </r>
       <r>    -9.3105     5.6787   244.3084 </r>
       <r>    -9.1946    14.4138   247.8545 </r>
       <r>    -9.0787    24.9597   252.2605 </r>
       <r>    -8.9627     0.0000   254.0000 </r>
       <r>    -8.8468    17.3156   256.0076 </r>
       <r>    -8.7308    19.2434   258.7144 </r>
       <r>    -8.6149     3.2420   261.7592 </r>
       <r>    -8.4990    18.3340   266.0756 </r>
       <r>    -8.3830    33.1853   270.5975 </r>
       <r>    -8.2671    40.1515   278.0718 </r>
       <r>    -8.1511    46.8812   285.4354 </r>
       <r>    -8.0352    43.7007   292.0000 </r>
       <r>    -7.9193     0.0000   292.0000 </r>
       <r>    -7.8033     0.0000   292.0000 </r>
       <r>    -7.6874     0.0000   292.0000 </r>
       <r>    -7.5714     0.0000   292.0000 </r>
       <r>    -7.4555    30.0814   295.4876 </r>
       <r>    -7.3396     8.7215   299.0112 </r>
       <r>    -7.2236    34.4719   303.9967 </r>
       <r>    -7.1077    33.3896   307.8712 </r>
       <r>    -6.9917     0.0000   310.0000 </r>
       <r>    -6.8758     0.5477   310.0635 </r>
       <r>    -6.7599    17.2503   316.0000 </r>
       <r>    -6.6439     0.0000   316.0000 </r>
       <r>    -6.5280     5.3317   316.6182 </r>
       <r>    -6.4120     0.0000   322.0000 </r>
       <r>    -6.2961    79.1614   331.1780 </r>
       <r>    -6.1802    28.9122   337.3521 </r>
       <r>    -6.0642     0.0000   340.0000 </r>
       <r>    -5.9483    34.5006   344.0000 </r>
       <r>    -5.8323    33.5938   347.8949 </r>
       <r>    -5.7164    37.5027   352.3481 </r>
       <r>    -5.6005     0.0000   354.0000 </r>
       <r>    -5.4845     0.0000   354.0000 </r>
       <r>    -5.3686     0.0000   354.0000 </r>
       <r>    -5.2526     0.0000   354.0000 </r>
       <r>    -5.1367     0.0000   354.0000 </r>
       <r>    -5.0208     0.0000   354.0000 </r>
       <r>    -4.9048     0.0000   354.0000 </r>
       <r>    -4.7889     0.0000   354.0000 </r>
       <r>    -4.6729     0.0000   354.0000 </r>
       <r>    -4.5570     0.0000   354.0000 </r>
       <r>    -4.4411     0.0000   354.0000 </r>
       <r>    -4.3251     0.0000   354.0000 </r>
       <r>    -4.2092     0.0000   354.0000 </r>
       <r>    -4.0932     0.0000   354.0000 </r>
       <r>    -3.9773     0.0000   354.0000 </r>
       <r>    -3.8614     0.0000   354.0000 </r>
       <r>    -3.7454     0.0000   354.0000 </r>
       <r>    -3.6295     0.0000   354.0000 </r>
       <r>    -3.5135     0.0000   354.0000 </r>
       <r>    -3.3976     0.0000   354.0000 </r>
       <r>    -3.2817     0.0000   354.0000 </r>
       <r>    -3.1657    38.1762   358.4261 </r>
       <r>    -3.0498     0.0000   360.0000 </r>
       <r>    -2.9338    26.5163   363.0743 </r>
       <r>    -2.8179     0.0000   364.0000 </r>
       <r>    -2.7020    14.1988   365.6462 </r>
       <r>    -2.5860    18.8316   368.0000 </r>
       <r>    -2.4701     0.0000   368.0000 </r>
       <r>    -2.3541     0.0145   368.0017 </r>
       <r>    -2.2382     1.9061   368.3877 </r>
       <r>    -2.1223    12.6394   369.9321 </r>
       <r>    -2.0063     0.0000   370.0000 </r>
       <r>    -1.8904    12.8133   371.4856 </r>
       <r>    -1.7744     1.2363   371.7100 </r>
       <r>    -1.6585    14.5802   373.4571 </r>
       <r>    -1.5426     0.8148   374.0945 </r>
       <r>    -1.4266    18.6203   380.1588 </r>
       <r>    -1.3107    36.8761   384.5921 </r>
       <r>    -1.1947    12.1361   387.7071 </r>
       <r>    -1.0788    30.3945   393.5239 </r>
       <r>    -0.9629     0.0989   394.0115 </r>
       <r>    -0.8469     7.7840   395.5691 </r>
       <r>    -0.7310     2.2774   395.9140 </r>
       <r>    -0.6150     0.0000   396.0000 </r>
       <r>    -0.4991     0.0000   396.0000 </r>
       <r>    -0.3831    17.3182   398.0079 </r>
       <r>    -0.2672    31.7309   403.0622 </r>
       <r>    -0.1513    10.9657   405.5547 </r>
       <r>    -0.0353    29.0575   410.1523 </r>
       <r>     0.0806    28.7126   415.2289 </r>
       <r>     0.1966    24.2918   420.4664 </r>
       <r>     0.3125    35.6589   425.8343 </r>
       <r>     0.4284    35.8518   430.4900 </r>
       <r>     0.5444    49.3263   438.2189 </r>
       <r>     0.6603    53.1391   446.2276 </r>
       <r>     0.7763    65.1731   456.6895 </r>
       <r>     0.8922    57.2767   466.0407 </r>
       <r>     1.0081    56.4781   477.0481 </r>
       <r>     1.1241     1.0063   480.0000 </r>
       <r>     1.2400     0.0000   480.0000 </r>
       <r>     1.3560     0.0000   480.0000 </r>
       <r>     1.4719     0.0000   480.0000 </r>
       <r>     1.5878     0.0000   480.0000 </r>
       <r>     1.7038     0.0000   480.0000 </r>
       <r>     1.8197     0.0000   480.0000 </r>
       <r>     1.9357     0.0000   480.0000 </r>
       <r>     2.0516     0.0000   480.0000 </r>
       <r>     2.1675     0.0000   480.0000 </r>
       <r>     2.2835     0.0000   480.0000 </r>
       <r>     2.3994     0.0000   480.0000 </r>
       <r>     2.5154     0.0000   480.0000 </r>
       <r>     2.6313     0.0000   480.0000 </r>
      </set>
     </set>
    </array>
   </total>
  </dos>
 </calculation>
 <structure name="finalpos" >
  <crystal>
   <varray name="basis" >
    <v>      29.53094694      -0.06652250       0.00000000 </v>
    <v>     -14.82314492      25.55527061       0.00000000 </v>
    <v>       0.00000000       0.00000000      20.00000000 </v>
   </varray>
   <i name="volume">  15073.70535018 </i>
   <varray name="rec_basis" >
    <v>       0.03390709       0.01966755       0.00000000 </v>
    <v>       0.00008826       0.03918207       0.00000000 </v>
    <v>       0.00000000       0.00000000       0.05000000 </v>
   </varray>
  </crystal>
  <varray name="positions" >
   <v>       0.40751778       0.96804091       0.36388303 </v>
   <v>       0.44145532       0.91692146       0.35333187 </v>
   <v>       0.03195751       0.59261646       0.36313580 </v>
   <v>       0.08327608       0.55881749       0.35344268 </v>
   <v>       0.55966301       0.59321937       0.36253406 </v>
   <v>       0.47432813       0.56021575       0.35372821 </v>
   <v>       0.12036575       0.63093088       0.47740257 </v>
   <v>       0.21766383       0.67982688       0.48207748 </v>
   <v>       0.11978429       0.48605412       0.50743393 </v>
   <v>       0.21737507       0.53563105       0.51121798 </v>
   <v>       0.31730189       0.53499932       0.51296629 </v>
   <v>       0.36458600       0.48511481       0.50786168 </v>
   <v>       0.46262540       0.67905963       0.48462971 </v>
   <v>       0.51033234       0.62984775       0.47892624 </v>
   <v>       0.46386966       0.78068583       0.50827795 </v>
   <v>       0.51376899       0.87825687       0.50524823 </v>
   <v>       0.36907133       0.87849446       0.47703714 </v>
   <v>       0.31985910       0.78119723       0.48078825 </v>
   <v>       0.87817550       0.36871151       0.53082402 </v>
   <v>       0.78073547       0.32059934       0.53262799 </v>
   <v>       0.87865593       0.50899951       0.46972282 </v>
   <v>       0.78123901       0.46051730       0.47298395 </v>
   <v>       0.67778540       0.46018415       0.46825557 </v>
   <v>       0.62876851       0.50822266       0.46541185 </v>
   <v>       0.53711363       0.31904218       0.52439489 </v>
   <v>       0.48774632       0.36674406       0.52315854 </v>
   <v>       0.53729109       0.21659546       0.47971696 </v>
   <v>       0.48915359       0.11920789       0.47587736 </v>
   <v>       0.63025764       0.12022980       0.53441825 </v>
   <v>       0.67802888       0.21760840       0.53677429 </v>
   <v>       0.48615980       0.05039637       0.40930915 </v>
   <v>       0.94895553       0.51280302       0.40573156 </v>
   <v>       0.56207592       0.51294071       0.40218683 </v>
   <v>       0.51471663       0.94717178       0.58238697 </v>
   <v>       0.56288700       0.04372062       0.58973115 </v>
   <v>       0.05005355       0.48517132       0.58286637 </v>
   <v>       0.95339357       0.43640964       0.58761808 </v>
   <v>       0.43341856       0.48243970       0.58101789 </v>
   <v>       0.48081522       0.43347683       0.58278803 </v>
   <v>       0.30662569       0.69247894       0.49527103 </v>
   <v>       0.38704824       0.69206669       0.49795729 </v>
   <v>       0.30583134       0.61158258       0.50086482 </v>
   <v>       0.69226723       0.30603978       0.50985240 </v>
   <v>       0.61146426       0.30539549       0.50249126 </v>
   <v>       0.69233472       0.38622008       0.49660605 </v>
   <v>       0.43621063       0.95096711       0.38246750 </v>
   <v>       0.04886096       0.56383990       0.38195593 </v>
   <v>       0.51376217       0.56443030       0.38139725 </v>
   <v>       0.28166321       0.63983784       0.49795069 </v>
   <v>       0.35930721       0.71682919       0.49614938 </v>
   <v>       0.35851619       0.63944130       0.49969077 </v>
   <v>       0.38875706       0.77478532       0.49462966 </v>
   <v>       0.36236941       0.80283399       0.48584183 </v>
   <v>       0.39012688       0.85723277       0.48358216 </v>
   <v>       0.44495388       0.88515483       0.49067259 </v>
   <v>       0.47116996       0.85703932       0.50035126 </v>
   <v>       0.44352377       0.80256536       0.50180739 </v>
   <v>       0.22368025       0.61081121       0.49684742 </v>
   <v>       0.19585895       0.63735500       0.48741254 </v>
   <v>       0.14143451       0.60975815       0.48463208 </v>
   <v>       0.11328634       0.55496504       0.49186216 </v>
   <v>       0.14118444       0.52862880       0.50241989 </v>
   <v>       0.19565452       0.55609487       0.50436334 </v>
   <v>       0.38694766       0.61012360       0.49900895 </v>
   <v>       0.35964499       0.55537334       0.50607692 </v>
   <v>       0.38624445       0.52772606       0.50338258 </v>
   <v>       0.44064775       0.55393602       0.49253223 </v>
   <v>       0.46793627       0.60880257       0.48623315 </v>
   <v>       0.44153028       0.63656179       0.48967967 </v>
   <v>       0.71685288       0.35847734       0.50326421 </v>
   <v>       0.63960772       0.28118174       0.50721973 </v>
   <v>       0.63964102       0.35798473       0.49845151 </v>
   <v>       0.61071369       0.22326275       0.50831406 </v>
   <v>       0.63648941       0.19562443       0.52424271 </v>
   <v>       0.60951934       0.14115897       0.52302029 </v>
   <v>       0.55631502       0.11270492       0.50459349 </v>
   <v>       0.53065723       0.14062019       0.48905533 </v>
   <v>       0.55727514       0.19504088       0.49143294 </v>
   <v>       0.77481187       0.38747500       0.50287204 </v>
   <v>       0.80263150       0.36201890       0.51955039 </v>
   <v>       0.85711097       0.38918572       0.51868254 </v>
   <v>       0.88544272       0.44230471       0.49996536 </v>
   <v>       0.85735959       0.46756606       0.48320735 </v>
   <v>       0.80289617       0.44072865       0.48517345 </v>
   <v>       0.61052453       0.38655915       0.49634025 </v>
   <v>       0.63603240       0.43999739       0.47962667 </v>
   <v>       0.60837372       0.46660982       0.47794932 </v>
   <v>       0.55470965       0.44092786       0.49416709 </v>
   <v>       0.52952056       0.38752247       0.51145078 </v>
   <v>       0.55683835       0.36057660       0.51192601 </v>
   <v>       0.52830955       0.05494050       0.50051130 </v>
   <v>       0.49296682       0.02872223       0.44827058 </v>
   <v>       0.46790738       0.97440733       0.44348807 </v>
   <v>       0.47450791       0.94306857       0.49101790 </v>
   <v>       0.94327715       0.47068843       0.49734429 </v>
   <v>       0.97016302       0.50621337       0.44555090 </v>
   <v>       0.02459476       0.53174162       0.44239921 </v>
   <v>       0.05535206       0.52535642       0.49103749 </v>
   <v>       0.52541790       0.46928746       0.49297127 </v>
   <v>       0.53429410       0.50566818       0.44235688 </v>
   <v>       0.50564344       0.53129478       0.44079108 </v>
   <v>       0.46854864       0.52416998       0.49000671 </v>
   <v>       0.50969242       0.97007419       0.54335949 </v>
   <v>       0.53645522       0.02448782       0.54775817 </v>
   <v>       0.02766168       0.49002935       0.54297030 </v>
   <v>       0.97316715       0.46287714       0.54585144 </v>
   <v>       0.46063366       0.48793978       0.54071885 </v>
   <v>       0.48770618       0.46068676       0.54194750 </v>
  </varray>
 </structure>
</modeling>
