<?xml version="1.0" encoding="ISO-8859-1"?>
<modeling>
 <generator>
  <i name="program" type="string">vasp </i>
  <i name="version" type="string">5.4.4.18Apr17-6-g9f103f2a35  </i>
  <i name="subversion" type="string">(build Jun 07 2020 16:50:00) complex            parallel </i>
  <i name="platform" type="string">LinuxIFC </i>
  <i name="date" type="string">2023 02 19 </i>
  <i name="time" type="string">15:09:35 </i>
 </generator>
 <incar>
  <i type="string" name="SYSTEM">Simulation for cell shape cell volume r</i>
  <i type="int" name="ISTART">     1</i>
  <i type="string" name="PREC">high</i>
  <i type="string" name="ALGO">48</i>
  <i type="int" name="ICHARG">    11</i>
  <i type="int" name="NELM">   200</i>
  <i type="int" name="IBRION">    -1</i>
  <i name="EDIFF">      0.00001000</i>
  <i name="EDIFFG">     -0.01000000</i>
  <i type="int" name="NSW">     0</i>
  <i type="int" name="ISIF">     2</i>
  <i name="ENCUT">    500.00000000</i>
  <i name="POTIM">      0.30000000</i>
  <i type="string" name="LREAL">A</i>
  <i type="int" name="ISMEAR">     0</i>
  <i name="SIGMA">      0.01000000</i>
  <i type="int" name="NWRITE">     0</i>
  <i type="logical" name="LWAVE"> F  </i>
  <i type="logical" name="LCHARG"> F  </i>
  <v type="int" name="KPOINT_BSE">    -1     0     0     0</v>
  <i type="int" name="NELM">   200</i>
  <i type="string" name="GGA">PE</i>
 </incar>
 <structure name="primitive_cell" >
  <crystal>
   <varray name="basis" >
    <v>      21.84483528       0.04429734       0.00000000 </v>
    <v>     -10.88416156      19.01180599       0.00000000 </v>
    <v>       0.00000000       0.00000000      20.00000000 </v>
   </varray>
   <i name="volume">   8315.83819635 </i>
   <varray name="rec_basis" >
    <v>       0.04572433       0.02617694       0.00000000 </v>
    <v>      -0.00010654       0.05253790       0.00000000 </v>
    <v>       0.00000000       0.00000000       0.05000000 </v>
   </varray>
  </crystal>
  <varray name="positions" >
   <v>       0.46539778      -0.17239433       0.49977751 </v>
   <v>       0.41293816      -0.19130636       0.49413626 </v>
   <v>       0.37205534      -0.26243857       0.49457196 </v>
   <v>       0.38483620      -0.14383258      -0.49726655 </v>
   <v>       0.40709827      -0.29905924       0.49408156 </v>
   <v>       0.44387081      -0.06860114      -0.49871356 </v>
   <v>       0.35530418      -0.15492266      -0.44990886 </v>
   <v>       0.47215444      -0.07320298       0.39868202 </v>
   <v>       0.34654854      -0.15365939       0.46248173 </v>
   <v>       0.48433933      -0.04047430       0.44332783 </v>
   <v>       0.30194172      -0.28939358       0.49579742 </v>
   <v>       0.46027900      -0.02571672      -0.44202635 </v>
   <v>       0.36438314      -0.36892396       0.49517477 </v>
   <v>       0.42943473      -0.04708509      -0.39641138 </v>
   <v>      -0.46033370       0.02877999       0.44219885 </v>
   <v>       0.49766933      -0.34517134       0.46185542 </v>
   <v>       0.26556655      -0.36058670       0.49630795 </v>
   <v>       0.48964018      -0.35250553      -0.45032370 </v>
   <v>      -0.48440213       0.04354768      -0.44316125 </v>
   <v>       0.29295801      -0.40349947       0.49630588 </v>
   <v>       0.39473797      -0.41015152       0.49556596 </v>
   <v>       0.47024742      -0.38262381      -0.49721772 </v>
   <v>      -0.44388335       0.07165828       0.49889540 </v>
   <v>      -0.42949038       0.05013993       0.39658299 </v>
   <v>      -0.47226547       0.07628233      -0.39852731 </v>
   <v>       0.19415736      -0.39069008       0.49721605 </v>
   <v>       0.36154096      -0.46220346      -0.49734758 </v>
   <v>       0.17503314      -0.35743978      -0.49547111 </v>
   <v>      -0.38465304       0.14681538       0.49744248 </v>
   <v>       0.48652231      -0.44199143      -0.49859163 </v>
   <v>      -0.34628123       0.15646827      -0.46244687 </v>
   <v>      -0.35529056       0.15776421       0.44998099 </v>
   <v>      -0.47630822      -0.42686870      -0.39669612 </v>
   <v>       0.45241205      -0.47103745       0.39925749 </v>
   <v>       0.14759693      -0.46570796      -0.49276660 </v>
   <v>       0.15868588      -0.48275368      -0.44453419 </v>
   <v>      -0.48628016      -0.45813826      -0.44209073 </v>
   <v>       0.15885372      -0.49432029       0.46821899 </v>
   <v>       0.47355869      -0.48299530       0.44373581 </v>
   <v>      -0.46468039       0.17606785       0.49974941 </v>
   <v>      -0.41239398       0.19455956      -0.49368441 </v>
   <v>       0.07782608      -0.44848488       0.40225056 </v>
   <v>       0.07162199      -0.48323314      -0.49567326 </v>
   <v>       0.04400300      -0.47058722       0.44603750 </v>
   <v>      -0.47216950       0.48632431      -0.44316469 </v>
   <v>       0.48769869       0.46148027       0.44265384 </v>
   <v>      -0.37117095       0.26565745      -0.49345274 </v>
   <v>       0.04831191       0.47852810      -0.39422221 </v>
   <v>       0.02736716       0.48829709      -0.44007963 </v>
   <v>      -0.30106183       0.29234803      -0.49357372 </v>
   <v>      -0.48508248       0.44535939       0.49914604 </v>
   <v>      -0.45098004       0.47438118      -0.39870783 </v>
   <v>       0.47780070       0.43027245       0.39723219 </v>
   <v>      -0.40602284       0.30248386      -0.49347888 </v>
   <v>      -0.02609037      -0.48612375       0.44355077 </v>
   <v>      -0.04273513       0.47273890      -0.44257173 </v>
   <v>      -0.04704059      -0.47637587       0.39768812 </v>
   <v>      -0.26445958       0.36354149      -0.49363589 </v>
   <v>      -0.07031485       0.48551898       0.49918203 </v>
   <v>      -0.17405761       0.36006932       0.49888813 </v>
   <v>      -0.35997465       0.46573479       0.49922452 </v>
   <v>      -0.46866611       0.38610643       0.49781265 </v>
   <v>      -0.36307602       0.37230415      -0.49354551 </v>
   <v>      -0.07654475       0.45064501      -0.39877097 </v>
   <v>      -0.19304950       0.39344502      -0.49390765 </v>
   <v>      -0.48723320       0.35641702       0.45060792 </v>
   <v>      -0.39327219       0.41368277      -0.49379890 </v>
   <v>      -0.49671679       0.34821366      -0.46173471 </v>
   <v>      -0.29167460       0.40660353      -0.49377639 </v>
   <v>      -0.14616032       0.46843857       0.49639538 </v>
   <v>      -0.15714616       0.49707105      -0.46440219 </v>
   <v>      -0.15709747       0.48583874       0.44829371 </v>
  </varray>
 </structure>
 <varray name="primitive_index" >
  <v type="int" >        1 </v>
  <v type="int" >       64 </v>
  <v type="int" >       32 </v>
  <v type="int" >       48 </v>
  <v type="int" >       62 </v>
  <v type="int" >       45 </v>
  <v type="int" >       17 </v>
  <v type="int" >       15 </v>
  <v type="int" >       18 </v>
  <v type="int" >       46 </v>
  <v type="int" >       61 </v>
  <v type="int" >       58 </v>
  <v type="int" >       33 </v>
  <v type="int" >       27 </v>
  <v type="int" >       47 </v>
  <v type="int" >       14 </v>
  <v type="int" >       31 </v>
  <v type="int" >       13 </v>
  <v type="int" >       57 </v>
  <v type="int" >       63 </v>
  <v type="int" >       65 </v>
  <v type="int" >       44 </v>
  <v type="int" >       59 </v>
  <v type="int" >       16 </v>
  <v type="int" >       28 </v>
  <v type="int" >       66 </v>
  <v type="int" >        2 </v>
  <v type="int" >        3 </v>
  <v type="int" >       60 </v>
  <v type="int" >       41 </v>
  <v type="int" >       29 </v>
  <v type="int" >       30 </v>
  <v type="int" >       23 </v>
  <v type="int" >       11 </v>
  <v type="int" >       40 </v>
  <v type="int" >        9 </v>
  <v type="int" >       54 </v>
  <v type="int" >       10 </v>
  <v type="int" >       42 </v>
  <v type="int" >        4 </v>
  <v type="int" >       70 </v>
  <v type="int" >        7 </v>
  <v type="int" >       37 </v>
  <v type="int" >       38 </v>
  <v type="int" >       53 </v>
  <v type="int" >       43 </v>
  <v type="int" >       35 </v>
  <v type="int" >       19 </v>
  <v type="int" >       50 </v>
  <v type="int" >       67 </v>
  <v type="int" >       55 </v>
  <v type="int" >       24 </v>
  <v type="int" >       12 </v>
  <v type="int" >       68 </v>
  <v type="int" >       39 </v>
  <v type="int" >       49 </v>
  <v type="int" >        8 </v>
  <v type="int" >       34 </v>
  <v type="int" >       51 </v>
  <v type="int" >        6 </v>
  <v type="int" >        5 </v>
  <v type="int" >       56 </v>
  <v type="int" >       36 </v>
  <v type="int" >       20 </v>
  <v type="int" >       72 </v>
  <v type="int" >       26 </v>
  <v type="int" >       71 </v>
  <v type="int" >       25 </v>
  <v type="int" >       69 </v>
  <v type="int" >       52 </v>
  <v type="int" >       21 </v>
  <v type="int" >       22 </v>
 </varray>
 <kpoints>
  <generation param="listgenerated">
   <i name="divisions" type="int">      20 </i>
   <v>       0.00000000       0.00000000       0.00000000 </v>
   <v>       0.50000000      -0.50000000       0.00000000 </v>
   <v>       0.66463991      -0.33349980       0.00000000 </v>
   <v>       0.50000000       0.00000000       0.00000000 </v>
   <v>       0.33536009       0.33349980       0.00000000 </v>
   <v>       0.00000000       0.50000000       0.00000000 </v>
   <v>       0.00000000       0.00000000       0.00000000 </v>
  </generation>
  <varray name="kpointlist" >
   <v>       0.00000000       0.00000000       0.00000000 </v>
   <v>       0.02631579      -0.02631579       0.00000000 </v>
   <v>       0.05263158      -0.05263158       0.00000000 </v>
   <v>       0.07894737      -0.07894737       0.00000000 </v>
   <v>       0.10526316      -0.10526316       0.00000000 </v>
   <v>       0.13157895      -0.13157895       0.00000000 </v>
   <v>       0.15789474      -0.15789474       0.00000000 </v>
   <v>       0.18421053      -0.18421053       0.00000000 </v>
   <v>       0.21052632      -0.21052632       0.00000000 </v>
   <v>       0.23684211      -0.23684211       0.00000000 </v>
   <v>       0.26315789      -0.26315789       0.00000000 </v>
   <v>       0.28947368      -0.28947368       0.00000000 </v>
   <v>       0.31578947      -0.31578947       0.00000000 </v>
   <v>       0.34210526      -0.34210526       0.00000000 </v>
   <v>       0.36842105      -0.36842105       0.00000000 </v>
   <v>       0.39473684      -0.39473684       0.00000000 </v>
   <v>       0.42105263      -0.42105263       0.00000000 </v>
   <v>       0.44736842      -0.44736842       0.00000000 </v>
   <v>       0.47368421      -0.47368421       0.00000000 </v>
   <v>       0.50000000      -0.50000000       0.00000000 </v>
   <v>       0.50000000      -0.50000000       0.00000000 </v>
   <v>       0.50866526      -0.49123683       0.00000000 </v>
   <v>       0.51733052      -0.48247366       0.00000000 </v>
   <v>       0.52599577      -0.47371049       0.00000000 </v>
   <v>       0.53466103      -0.46494733       0.00000000 </v>
   <v>       0.54332629      -0.45618416       0.00000000 </v>
   <v>       0.55199155      -0.44742099       0.00000000 </v>
   <v>       0.56065681      -0.43865782       0.00000000 </v>
   <v>       0.56932207      -0.42989465       0.00000000 </v>
   <v>       0.57798732      -0.42113148       0.00000000 </v>
   <v>       0.58665258      -0.41236831       0.00000000 </v>
   <v>       0.59531784      -0.40360515       0.00000000 </v>
   <v>       0.60398310      -0.39484198       0.00000000 </v>
   <v>       0.61264836      -0.38607881       0.00000000 </v>
   <v>       0.62131362      -0.37731564       0.00000000 </v>
   <v>       0.62997887      -0.36855247       0.00000000 </v>
   <v>       0.63864413      -0.35978930       0.00000000 </v>
   <v>       0.64730939      -0.35102613       0.00000000 </v>
   <v>       0.65597465      -0.34226297       0.00000000 </v>
   <v>       0.66463991      -0.33349980       0.00000000 </v>
   <v>       0.66463991      -0.33349980       0.00000000 </v>
   <v>       0.65597465      -0.31594718       0.00000000 </v>
   <v>       0.64730939      -0.29839455       0.00000000 </v>
   <v>       0.63864413      -0.28084193       0.00000000 </v>
   <v>       0.62997887      -0.26328931       0.00000000 </v>
   <v>       0.62131362      -0.24573669       0.00000000 </v>
   <v>       0.61264836      -0.22818407       0.00000000 </v>
   <v>       0.60398310      -0.21063145       0.00000000 </v>
   <v>       0.59531784      -0.19307883       0.00000000 </v>
   <v>       0.58665258      -0.17552621       0.00000000 </v>
   <v>       0.57798732      -0.15797359       0.00000000 </v>
   <v>       0.56932207      -0.14042097       0.00000000 </v>
   <v>       0.56065681      -0.12286835       0.00000000 </v>
   <v>       0.55199155      -0.10531573       0.00000000 </v>
   <v>       0.54332629      -0.08776310       0.00000000 </v>
   <v>       0.53466103      -0.07021048       0.00000000 </v>
   <v>       0.52599577      -0.05265786       0.00000000 </v>
   <v>       0.51733052      -0.03510524       0.00000000 </v>
   <v>       0.50866526      -0.01755262       0.00000000 </v>
   <v>       0.50000000       0.00000000       0.00000000 </v>
   <v>       0.50000000       0.00000000       0.00000000 </v>
   <v>       0.49133474       0.01755262       0.00000000 </v>
   <v>       0.48266948       0.03510524       0.00000000 </v>
   <v>       0.47400423       0.05265786       0.00000000 </v>
   <v>       0.46533897       0.07021048       0.00000000 </v>
   <v>       0.45667371       0.08776310       0.00000000 </v>
   <v>       0.44800845       0.10531573       0.00000000 </v>
   <v>       0.43934319       0.12286835       0.00000000 </v>
   <v>       0.43067793       0.14042097       0.00000000 </v>
   <v>       0.42201268       0.15797359       0.00000000 </v>
   <v>       0.41334742       0.17552621       0.00000000 </v>
   <v>       0.40468216       0.19307883       0.00000000 </v>
   <v>       0.39601690       0.21063145       0.00000000 </v>
   <v>       0.38735164       0.22818407       0.00000000 </v>
   <v>       0.37868638       0.24573669       0.00000000 </v>
   <v>       0.37002113       0.26328931       0.00000000 </v>
   <v>       0.36135587       0.28084193       0.00000000 </v>
   <v>       0.35269061       0.29839455       0.00000000 </v>
   <v>       0.34402535       0.31594718       0.00000000 </v>
   <v>       0.33536009       0.33349980       0.00000000 </v>
   <v>       0.33536009       0.33349980       0.00000000 </v>
   <v>       0.31770956       0.34226297       0.00000000 </v>
   <v>       0.30005903       0.35102613       0.00000000 </v>
   <v>       0.28240850       0.35978930       0.00000000 </v>
   <v>       0.26475797       0.36855247       0.00000000 </v>
   <v>       0.24710744       0.37731564       0.00000000 </v>
   <v>       0.22945691       0.38607881       0.00000000 </v>
   <v>       0.21180637       0.39484198       0.00000000 </v>
   <v>       0.19415584       0.40360515       0.00000000 </v>
   <v>       0.17650531       0.41236831       0.00000000 </v>
   <v>       0.15885478       0.42113148       0.00000000 </v>
   <v>       0.14120425       0.42989465       0.00000000 </v>
   <v>       0.12355372       0.43865782       0.00000000 </v>
   <v>       0.10590319       0.44742099       0.00000000 </v>
   <v>       0.08825266       0.45618416       0.00000000 </v>
   <v>       0.07060212       0.46494733       0.00000000 </v>
   <v>       0.05295159       0.47371049       0.00000000 </v>
   <v>       0.03530106       0.48247366       0.00000000 </v>
   <v>       0.01765053       0.49123683       0.00000000 </v>
   <v>       0.00000000       0.50000000       0.00000000 </v>
   <v>       0.00000000       0.50000000       0.00000000 </v>
   <v>       0.00000000       0.47368421       0.00000000 </v>
   <v>       0.00000000       0.44736842       0.00000000 </v>
   <v>       0.00000000       0.42105263       0.00000000 </v>
   <v>       0.00000000       0.39473684       0.00000000 </v>
   <v>       0.00000000       0.36842105       0.00000000 </v>
   <v>       0.00000000       0.34210526       0.00000000 </v>
   <v>       0.00000000       0.31578947       0.00000000 </v>
   <v>       0.00000000       0.28947368       0.00000000 </v>
   <v>       0.00000000       0.26315789       0.00000000 </v>
   <v>       0.00000000       0.23684211       0.00000000 </v>
   <v>       0.00000000       0.21052632       0.00000000 </v>
   <v>       0.00000000       0.18421053       0.00000000 </v>
   <v>       0.00000000       0.15789474       0.00000000 </v>
   <v>       0.00000000       0.13157895       0.00000000 </v>
   <v>       0.00000000       0.10526316       0.00000000 </v>
   <v>       0.00000000       0.07894737       0.00000000 </v>
   <v>       0.00000000       0.05263158       0.00000000 </v>
   <v>       0.00000000       0.02631579       0.00000000 </v>
   <v>       0.00000000       0.00000000       0.00000000 </v>
  </varray>
  <varray name="weights" >
   <v>       0.00833333 </v>
   <v>       0.00833333 </v>
   <v>       0.00833333 </v>
   <v>       0.00833333 </v>
   <v>       0.00833333 </v>
   <v>       0.00833333 </v>
   <v>       0.00833333 </v>
   <v>       0.00833333 </v>
   <v>       0.00833333 </v>
   <v>       0.00833333 </v>
   <v>       0.00833333 </v>
   <v>       0.00833333 </v>
   <v>       0.00833333 </v>
   <v>       0.00833333 </v>
   <v>       0.00833333 </v>
   <v>       0.00833333 </v>
   <v>       0.00833333 </v>
   <v>       0.00833333 </v>
   <v>       0.00833333 </v>
   <v>       0.00833333 </v>
   <v>       0.00833333 </v>
   <v>       0.00833333 </v>
   <v>       0.00833333 </v>
   <v>       0.00833333 </v>
   <v>       0.00833333 </v>
   <v>       0.00833333 </v>
   <v>       0.00833333 </v>
   <v>       0.00833333 </v>
   <v>       0.00833333 </v>
   <v>       0.00833333 </v>
   <v>       0.00833333 </v>
   <v>       0.00833333 </v>
   <v>       0.00833333 </v>
   <v>       0.00833333 </v>
   <v>       0.00833333 </v>
   <v>       0.00833333 </v>
   <v>       0.00833333 </v>
   <v>       0.00833333 </v>
   <v>       0.00833333 </v>
   <v>       0.00833333 </v>
   <v>       0.00833333 </v>
   <v>       0.00833333 </v>
   <v>       0.00833333 </v>
   <v>       0.00833333 </v>
   <v>       0.00833333 </v>
   <v>       0.00833333 </v>
   <v>       0.00833333 </v>
   <v>       0.00833333 </v>
   <v>       0.00833333 </v>
   <v>       0.00833333 </v>
   <v>       0.00833333 </v>
   <v>       0.00833333 </v>
   <v>       0.00833333 </v>
   <v>       0.00833333 </v>
   <v>       0.00833333 </v>
   <v>       0.00833333 </v>
   <v>       0.00833333 </v>
   <v>       0.00833333 </v>
   <v>       0.00833333 </v>
   <v>       0.00833333 </v>
   <v>       0.00833333 </v>
   <v>       0.00833333 </v>
   <v>       0.00833333 </v>
   <v>       0.00833333 </v>
   <v>       0.00833333 </v>
   <v>       0.00833333 </v>
   <v>       0.00833333 </v>
   <v>       0.00833333 </v>
   <v>       0.00833333 </v>
   <v>       0.00833333 </v>
   <v>       0.00833333 </v>
   <v>       0.00833333 </v>
   <v>       0.00833333 </v>
   <v>       0.00833333 </v>
   <v>       0.00833333 </v>
   <v>       0.00833333 </v>
   <v>       0.00833333 </v>
   <v>       0.00833333 </v>
   <v>       0.00833333 </v>
   <v>       0.00833333 </v>
   <v>       0.00833333 </v>
   <v>       0.00833333 </v>
   <v>       0.00833333 </v>
   <v>       0.00833333 </v>
   <v>       0.00833333 </v>
   <v>       0.00833333 </v>
   <v>       0.00833333 </v>
   <v>       0.00833333 </v>
   <v>       0.00833333 </v>
   <v>       0.00833333 </v>
   <v>       0.00833333 </v>
   <v>       0.00833333 </v>
   <v>       0.00833333 </v>
   <v>       0.00833333 </v>
   <v>       0.00833333 </v>
   <v>       0.00833333 </v>
   <v>       0.00833333 </v>
   <v>       0.00833333 </v>
   <v>       0.00833333 </v>
   <v>       0.00833333 </v>
   <v>       0.00833333 </v>
   <v>       0.00833333 </v>
   <v>       0.00833333 </v>
   <v>       0.00833333 </v>
   <v>       0.00833333 </v>
   <v>       0.00833333 </v>
   <v>       0.00833333 </v>
   <v>       0.00833333 </v>
   <v>       0.00833333 </v>
   <v>       0.00833333 </v>
   <v>       0.00833333 </v>
   <v>       0.00833333 </v>
   <v>       0.00833333 </v>
   <v>       0.00833333 </v>
   <v>       0.00833333 </v>
   <v>       0.00833333 </v>
   <v>       0.00833333 </v>
   <v>       0.00833333 </v>
   <v>       0.00833333 </v>
   <v>       0.00833333 </v>
  </varray>
 </kpoints>
 <parameters>
  <separator name="general" >
   <i type="string" name="SYSTEM">Simulation for cell shape cell volume r</i>
   <i type="logical" name="LCOMPAT"> F  </i>
  </separator>
  <separator name="electronic" >
   <i type="string" name="PREC">high</i>
   <i name="ENMAX">    500.00000000</i>
   <i name="ENAUG">    644.87300000</i>
   <i name="EDIFF">      0.00001000</i>
   <i type="int" name="IALGO">    38</i>
   <i type="int" name="IWAVPR">    10</i>
   <i type="int" name="NBANDS">   144</i>
   <i name="NELECT">    210.00000000</i>
   <i type="int" name="TURBO">     0</i>
   <i type="int" name="IRESTART">     0</i>
   <i type="int" name="NREBOOT">     0</i>
   <i type="int" name="NMIN">     0</i>
   <i name="EREF">      0.00000000</i>
   <separator name="electronic smearing" >
    <i type="int" name="ISMEAR">     0</i>
    <i name="SIGMA">      0.01000000</i>
    <i name="KSPACING">      0.50000000</i>
    <i type="logical" name="KGAMMA"> T  </i>
   </separator>
   <separator name="electronic projectors" >
    <i type="logical" name="LREAL"> T  </i>
    <v name="ROPT">     -0.00040000     -0.00040000     -0.00040000</v>
    <i type="int" name="LMAXPAW">  -100</i>
    <i type="int" name="LMAXMIX">     2</i>
    <i type="logical" name="NLSPLINE"> F  </i>
   </separator>
   <separator name="electronic startup" >
    <i type="int" name="ISTART">     1</i>
    <i type="int" name="ICHARG">    11</i>
    <i type="int" name="INIWAV">     1</i>
   </separator>
   <separator name="electronic spin" >
    <i type="int" name="ISPIN">     1</i>
    <i type="logical" name="LNONCOLLINEAR"> F  </i>
    <v name="MAGMOM">      1.00000000      1.00000000      1.00000000      1.00000000      1.00000000      1.00000000      1.00000000      1.00000000      1.00000000      1.00000000      1.00000000      1.00000000      1.00000000      1.00000000      1.00000000      1.00000000      1.00000000      1.00000000      1.00000000      1.00000000
      1.00000000      1.00000000      1.00000000      1.00000000      1.00000000      1.00000000      1.00000000      1.00000000      1.00000000      1.00000000      1.00000000      1.00000000      1.00000000      1.00000000      1.00000000      1.00000000      1.00000000      1.00000000      1.00000000      1.00000000
      1.00000000      1.00000000      1.00000000      1.00000000      1.00000000      1.00000000      1.00000000      1.00000000      1.00000000      1.00000000      1.00000000      1.00000000      1.00000000      1.00000000      1.00000000      1.00000000      1.00000000      1.00000000      1.00000000      1.00000000
      1.00000000      1.00000000      1.00000000      1.00000000      1.00000000      1.00000000      1.00000000      1.00000000      1.00000000      1.00000000      1.00000000      1.00000000</v>
    <i name="NUPDOWN">     -1.00000000</i>
    <i type="logical" name="LSORBIT"> F  </i>
    <v name="SAXIS">      0.00000000      0.00000000      1.00000000</v>
    <i type="logical" name="LSPIRAL"> F  </i>
    <v name="QSPIRAL">      0.00000000      0.00000000      0.00000000</v>
    <i type="logical" name="LZEROZ"> F  </i>
   </separator>
   <separator name="electronic exchange-correlation" >
    <i type="logical" name="LASPH"> F  </i>
    <i type="logical" name="LMETAGGA"> F  </i>
   </separator>
   <separator name="electronic convergence" >
    <i type="int" name="NELM">   200</i>
    <i type="int" name="NELMDL">     0</i>
    <i type="int" name="NELMIN">     2</i>
    <i name="ENINI">    500.00000000</i>
    <separator name="electronic convergence detail" >
     <i type="logical" name="LDIAG"> T  </i>
     <i type="logical" name="LSUBROT"> F  </i>
     <i name="WEIMIN">      0.00000000</i>
     <i name="EBREAK">      0.00000002</i>
     <i name="DEPER">      0.30000000</i>
     <i type="int" name="NRMM">     4</i>
     <i name="TIME">      0.40000000</i>
    </separator>
   </separator>
   <separator name="electronic mixer" >
    <i name="AMIX">      0.40000000</i>
    <i name="BMIX">      1.00000000</i>
    <i name="AMIN">      0.10000000</i>
    <i name="AMIX_MAG">      1.60000000</i>
    <i name="BMIX_MAG">      1.00000000</i>
    <separator name="electronic mixer details" >
     <i type="int" name="IMIX">     4</i>
     <i type="logical" name="MIXFIRST"> F  </i>
     <i type="int" name="MAXMIX">   -45</i>
     <i name="WC">    100.00000000</i>
     <i type="int" name="INIMIX">     1</i>
     <i type="int" name="MIXPRE">     1</i>
     <i type="int" name="MREMOVE">     5</i>
    </separator>
   </separator>
   <separator name="electronic dipolcorrection" >
    <i type="logical" name="LDIPOL"> F  </i>
    <i type="logical" name="LMONO"> F  </i>
    <i type="int" name="IDIPOL">     0</i>
    <i name="EPSILON">      1.00000000</i>
    <v name="DIPOL">   -100.00000000   -100.00000000   -100.00000000</v>
    <i name="EFIELD">      0.00000000</i>
   </separator>
  </separator>
  <separator name="grids" >
   <i type="int" name="NGX">   160</i>
   <i type="int" name="NGY">   160</i>
   <i type="int" name="NGZ">   150</i>
   <i type="int" name="NGXF">   250</i>
   <i type="int" name="NGYF">   250</i>
   <i type="int" name="NGZF">   224</i>
   <i type="logical" name="ADDGRID"> F  </i>
  </separator>
  <separator name="ionic" >
   <i type="int" name="NSW">     0</i>
   <i type="int" name="IBRION">    -1</i>
   <i type="int" name="MDALGO">     0</i>
   <i type="int" name="ISIF">     2</i>
   <i name="PSTRESS">      0.00000000</i>
   <i name="EDIFFG">     -0.01000000</i>
   <i type="int" name="NFREE">     0</i>
   <i name="POTIM">      0.30000000</i>
   <i name="SMASS">     -3.00000000</i>
   <i name="SCALEE">      1.00000000</i>
  </separator>
  <separator name="ionic md" >
   <i name="TEBEG">      0.00010000</i>
   <i name="TEEND">      0.00010000</i>
   <i type="int" name="NBLOCK">     1</i>
   <i type="int" name="KBLOCK">     1</i>
   <i type="int" name="NPACO">   256</i>
   <i name="APACO">     16.00000000</i>
  </separator>
  <separator name="symmetry" >
   <i type="int" name="ISYM">     2</i>
   <i name="SYMPREC">      0.00001000</i>
  </separator>
  <separator name="dos" >
   <i type="int" name="LORBIT">     0</i>
   <v name="RWIGS">     -1.00000000     -1.00000000     -1.00000000</v>
   <i type="int" name="NEDOS">   301</i>
   <i name="EMIN">     10.00000000</i>
   <i name="EMAX">    -10.00000000</i>
   <i name="EFERMI">      0.00000000</i>
  </separator>
  <separator name="writing" >
   <i type="int" name="NWRITE">     0</i>
   <i type="logical" name="LWAVE"> F  </i>
   <i type="logical" name="LDOWNSAMPLE"> F  </i>
   <i type="logical" name="LCHARG"> F  </i>
   <i type="logical" name="LPARD"> F  </i>
   <i type="logical" name="LVTOT"> F  </i>
   <i type="logical" name="LVHAR"> F  </i>
   <i type="logical" name="LELF"> F  </i>
   <i type="logical" name="LOPTICS"> F  </i>
   <v name="STM">      0.00000000      0.00000000      0.00000000      0.00000000      0.00000000      0.00000000      0.00000000</v>
  </separator>
  <separator name="performance" >
   <i type="int" name="NPAR">    16</i>
   <i type="int" name="NSIM">     4</i>
   <i type="int" name="NBLK">    -1</i>
   <i type="logical" name="LPLANE"> T  </i>
   <i type="logical" name="LSCALAPACK"> T  </i>
   <i type="logical" name="LSCAAWARE"> F  </i>
   <i type="logical" name="LSCALU"> F  </i>
   <i type="logical" name="LASYNC"> F  </i>
   <i type="logical" name="LORBITALREAL"> F  </i>
  </separator>
  <separator name="miscellaneous" >
   <i type="int" name="IDIOT">     3</i>
   <i type="int" name="ISPECIAL">     0</i>
   <i type="logical" name="LMUSIC"> F  </i>
   <v name="POMASS">      1.00000000     12.01100000     14.00100000</v>
   <v name="DARWINR">      0.00000000      0.00000000      0.00000000</v>
   <v name="DARWINV">      1.00000000      1.00000000      1.00000000</v>
   <i type="logical" name="LCORR"> T  </i>
  </separator>
  <i type="logical" name="GGA_COMPAT"> T  </i>
  <i type="logical" name="LBERRY"> F  </i>
  <i type="int" name="ICORELEVEL">     0</i>
  <i type="logical" name="LDAU"> F  </i>
  <i type="int" name="I_CONSTRAINED_M">     0</i>
  <separator name="electronic exchange-correlation" >
   <i type="string" name="GGA">PE</i>
   <i type="int" name="VOSKOWN">     0</i>
   <i type="logical" name="LHFCALC"> F  </i>
   <i type="string" name="PRECFOCK"></i>
   <i type="logical" name="LSYMGRAD"> F  </i>
   <i type="logical" name="LHFONE"> F  </i>
   <i type="logical" name="LRHFCALC"> F  </i>
   <i type="logical" name="LTHOMAS"> F  </i>
   <i type="logical" name="LMODELHF"> F  </i>
   <i name="ENCUT4O">     -1.00000000</i>
   <i type="int" name="EXXOEP">     0</i>
   <i type="int" name="FOURORBIT">     0</i>
   <i name="AEXX">      0.00000000</i>
   <i name="HFALPHA">      0.00000000</i>
   <i name="MCALPHA">      0.00000000</i>
   <i name="ALDAX">      1.00000000</i>
   <i name="AGGAX">      1.00000000</i>
   <i name="ALDAC">      1.00000000</i>
   <i name="AGGAC">      1.00000000</i>
   <i type="int" name="NKREDX">     1</i>
   <i type="int" name="NKREDY">     1</i>
   <i type="int" name="NKREDZ">     1</i>
   <i type="logical" name="SHIFTRED"> F  </i>
   <i type="logical" name="ODDONLY"> F  </i>
   <i type="logical" name="EVENONLY"> F  </i>
   <i type="int" name="LMAXFOCK">     0</i>
   <i type="int" name="NMAXFOCKAE">     0</i>
   <i type="logical" name="LFOCKAEDFT"> F  </i>
   <i name="HFSCREEN">      0.00000000</i>
   <i name="HFSCREENC">      0.00000000</i>
   <i type="int" name="NBANDSGWLOW">     0</i>
  </separator>
  <separator name="vdW DFT" >
   <i type="logical" name="LUSE_VDW"> F  </i>
   <i name="Zab_VDW">     -0.84910000</i>
   <i name="PARAM1">      0.12340000</i>
   <i name="PARAM2">      1.00000000</i>
   <i name="PARAM3">      0.00000000</i>
  </separator>
  <separator name="model GW" >
   <i type="int" name="MODEL_GW">     0</i>
   <i name="MODEL_EPS0">     69.29865164</i>
   <i name="MODEL_ALPHA">      1.00000000</i>
  </separator>
  <separator name="linear response parameters" >
   <i type="logical" name="LEPSILON"> F  </i>
   <i type="logical" name="LRPA"> F  </i>
   <i type="logical" name="LNABLA"> F  </i>
   <i type="logical" name="LVEL"> F  </i>
   <i type="int" name="KINTER">     0</i>
   <i name="CSHIFT">      0.10000000</i>
   <i name="OMEGAMAX">     -1.00000000</i>
   <i name="DEG_THRESHOLD">      0.00200000</i>
   <i name="RTIME">     -0.10000000</i>
   <i name="WPLASMAI">      0.00000000</i>
   <v name="DFIELD">      0.00000000      0.00000000      0.00000000</v>
   <v name="WPLASMA">      0.00000000      0.00000000      0.00000000      0.00000000      0.00000000      0.00000000      0.00000000      0.00000000      0.00000000</v>
  </separator>
  <separator name="orbital magnetization" >
   <i type="logical" name="NUCIND"> F  </i>
   <v name="MAGPOS">      0.00000000      0.00000000      0.00000000</v>
   <i type="logical" name="LNICSALL"> T  </i>
   <i type="logical" name="ORBITALMAG"> F  </i>
   <i type="logical" name="LMAGBLOCH"> F  </i>
   <i type="logical" name="LCHIMAG"> F  </i>
   <i type="logical" name="LGAUGE"> T  </i>
   <i type="int" name="MAGATOM">     0</i>
   <v name="MAGDIPOL">      0.00000000      0.00000000      0.00000000</v>
   <v name="AVECCONST">      0.00000000      0.00000000      0.00000000</v>
  </separator>
  <separator name="response functions" >
   <i type="logical" name="LADDER"> F  </i>
   <i type="logical" name="LRPAFORCE"> F  </i>
   <i type="logical" name="LFXC"> F  </i>
   <i type="logical" name="LHARTREE"> T  </i>
   <i type="int" name="IBSE">     0</i>
   <v type="int" name="KPOINT">    -1     0     0     0</v>
   <i type="logical" name="LTCTE"> F  </i>
   <i type="logical" name="LTETE"> F  </i>
   <i type="logical" name="LTRIPLET"> F  </i>
   <i type="logical" name="LFXCEPS"> F  </i>
   <i type="logical" name="LFXHEG"> F  </i>
   <i type="int" name="NATURALO">     2</i>
   <i type="logical" name="L2ORDER"> F  </i>
   <i type="logical" name="LMP2LT"> F  </i>
   <i type="logical" name="LUSEW"> F  </i>
   <i name="ENCUTGW">     -2.00000000</i>
   <i name="ENCUTGWSOFT">     -2.00000000</i>
   <i name="ENCUTLF">     -1.00000000</i>
   <i type="int" name="LMAXMP2">    -1</i>
   <i name="SCISSOR">      0.00000000</i>
   <i type="int" name="NOMEGA">     0</i>
   <i type="int" name="NOMEGAR">     0</i>
   <i type="int" name="NBANDSGW">    -1</i>
   <i type="int" name="NBANDSO">    -1</i>
   <i type="int" name="NBANDSV">    -1</i>
   <i type="int" name="NELM">   200</i>
   <i type="int" name="NELMHF">     1</i>
   <i type="int" name="DIM">     3</i>
   <i type="int" name="ANTIRES">     0</i>
   <i name="OMEGAMAX">    -30.00000000</i>
   <i name="OMEGAMIN">    -30.00000000</i>
   <i name="OMEGATL">   -200.00000000</i>
   <i type="int" name="OMEGAGRID">   140</i>
   <i name="CSHIFT">     -0.10000000</i>
   <i type="logical" name="SELFENERGY"> F  </i>
   <i type="logical" name="LSPECTRAL"> F  </i>
   <i type="logical" name="LSPECTRALGW"> F  </i>
   <i type="logical" name="LSINGLES"> F  </i>
   <i type="logical" name="LFERMIGW"> F  </i>
   <i type="logical" name="ODDONLYGW"> F  </i>
   <i type="logical" name="EVENONLYGW"> F  </i>
   <i type="int" name="NKREDLFX">     1</i>
   <i type="int" name="NKREDLFY">     1</i>
   <i type="int" name="NKREDLFZ">     1</i>
   <i type="int" name="MAXMEM">  2800</i>
   <i type="int" name="TELESCOPE">     0</i>
   <i type="int" name="TAUPAR">     1</i>
   <i type="int" name="OMEGAPAR">    -1</i>
   <i name="LAMBDA">      1.00000000</i>
  </separator>
  <separator name="External order field" >
   <i name="OFIELD_KAPPA">      0.00000000</i>
   <v name="OFIELD_K">      0.00000000      0.00000000      0.00000000</v>
   <i name="OFIELD_Q6_NEAR">      0.00000000</i>
   <i name="OFIELD_Q6_FAR">      0.00000000</i>
   <i name="OFIELD_A">      0.00000000</i>
  </separator>
  <separator name="solvation model" >
   <i type="logical" name="LSOL"> F  </i>
  </separator>
 </parameters>
 <atominfo>
  <atoms>      72 </atoms>
  <types>       3 </types>
  <array name="atoms" >
   <dimension dim="1">ion</dimension>
   <field type="string">element</field>
   <field type="int">atomtype</field>
   <set>
    <rc><c>H </c><c>   1</c></rc>
    <rc><c>H </c><c>   1</c></rc>
    <rc><c>H </c><c>   1</c></rc>
    <rc><c>H </c><c>   1</c></rc>
    <rc><c>H </c><c>   1</c></rc>
    <rc><c>H </c><c>   1</c></rc>
    <rc><c>H </c><c>   1</c></rc>
    <rc><c>H </c><c>   1</c></rc>
    <rc><c>H </c><c>   1</c></rc>
    <rc><c>H </c><c>   1</c></rc>
    <rc><c>H </c><c>   1</c></rc>
    <rc><c>H </c><c>   1</c></rc>
    <rc><c>H </c><c>   1</c></rc>
    <rc><c>H </c><c>   1</c></rc>
    <rc><c>H </c><c>   1</c></rc>
    <rc><c>H </c><c>   1</c></rc>
    <rc><c>H </c><c>   1</c></rc>
    <rc><c>H </c><c>   1</c></rc>
    <rc><c>H </c><c>   1</c></rc>
    <rc><c>H </c><c>   1</c></rc>
    <rc><c>H </c><c>   1</c></rc>
    <rc><c>H </c><c>   1</c></rc>
    <rc><c>H </c><c>   1</c></rc>
    <rc><c>H </c><c>   1</c></rc>
    <rc><c>H </c><c>   1</c></rc>
    <rc><c>H </c><c>   1</c></rc>
    <rc><c>H </c><c>   1</c></rc>
    <rc><c>H </c><c>   1</c></rc>
    <rc><c>H </c><c>   1</c></rc>
    <rc><c>H </c><c>   1</c></rc>
    <rc><c>C </c><c>   2</c></rc>
    <rc><c>C </c><c>   2</c></rc>
    <rc><c>C </c><c>   2</c></rc>
    <rc><c>C </c><c>   2</c></rc>
    <rc><c>C </c><c>   2</c></rc>
    <rc><c>C </c><c>   2</c></rc>
    <rc><c>C </c><c>   2</c></rc>
    <rc><c>C </c><c>   2</c></rc>
    <rc><c>C </c><c>   2</c></rc>
    <rc><c>C </c><c>   2</c></rc>
    <rc><c>C </c><c>   2</c></rc>
    <rc><c>C </c><c>   2</c></rc>
    <rc><c>C </c><c>   2</c></rc>
    <rc><c>C </c><c>   2</c></rc>
    <rc><c>C </c><c>   2</c></rc>
    <rc><c>C </c><c>   2</c></rc>
    <rc><c>C </c><c>   2</c></rc>
    <rc><c>C </c><c>   2</c></rc>
    <rc><c>C </c><c>   2</c></rc>
    <rc><c>C </c><c>   2</c></rc>
    <rc><c>C </c><c>   2</c></rc>
    <rc><c>C </c><c>   2</c></rc>
    <rc><c>C </c><c>   2</c></rc>
    <rc><c>C </c><c>   2</c></rc>
    <rc><c>C </c><c>   2</c></rc>
    <rc><c>C </c><c>   2</c></rc>
    <rc><c>C </c><c>   2</c></rc>
    <rc><c>C </c><c>   2</c></rc>
    <rc><c>C </c><c>   2</c></rc>
    <rc><c>C </c><c>   2</c></rc>
    <rc><c>N </c><c>   3</c></rc>
    <rc><c>N </c><c>   3</c></rc>
    <rc><c>N </c><c>   3</c></rc>
    <rc><c>N </c><c>   3</c></rc>
    <rc><c>N </c><c>   3</c></rc>
    <rc><c>N </c><c>   3</c></rc>
    <rc><c>N </c><c>   3</c></rc>
    <rc><c>N </c><c>   3</c></rc>
    <rc><c>N </c><c>   3</c></rc>
    <rc><c>N </c><c>   3</c></rc>
    <rc><c>N </c><c>   3</c></rc>
    <rc><c>N </c><c>   3</c></rc>
   </set>
  </array>
  <array name="atomtypes" >
   <dimension dim="1">type</dimension>
   <field type="int">atomspertype</field>
   <field type="string">element</field>
   <field>mass</field>
   <field>valence</field>
   <field type="string">pseudopotential</field>
   <set>
    <rc><c>  30</c><c>H </c><c>      1.00000000</c><c>      1.00000000</c><c>  PAW_PBE H 15Jun2001                   </c></rc>
    <rc><c>  30</c><c>C </c><c>     12.01100000</c><c>      4.00000000</c><c>  PAW_PBE C 08Apr2002                   </c></rc>
    <rc><c>  12</c><c>N </c><c>     14.00100000</c><c>      5.00000000</c><c>  PAW_PBE N 08Apr2002                   </c></rc>
   </set>
  </array>
 </atominfo>
 <structure name="initialpos" >
  <crystal>
   <varray name="basis" >
    <v>      21.84483528       0.04429734       0.00000000 </v>
    <v>     -10.88416156      19.01180599       0.00000000 </v>
    <v>       0.00000000       0.00000000      20.00000000 </v>
   </varray>
   <i name="volume">   8315.83819635 </i>
   <varray name="rec_basis" >
    <v>       0.04572433       0.02617694       0.00000000 </v>
    <v>      -0.00010654       0.05253790       0.00000000 </v>
    <v>       0.00000000       0.00000000       0.05000000 </v>
   </varray>
  </crystal>
  <varray name="positions" >
   <v>       0.46539778       0.82760567       0.49977751 </v>
   <v>       0.36154096       0.53779654       0.50265242 </v>
   <v>       0.17503314       0.64256022       0.50452889 </v>
   <v>       0.53531961       0.17606785       0.49974941 </v>
   <v>       0.64002535       0.46573479       0.49922452 </v>
   <v>       0.82594239       0.36006932       0.49888813 </v>
   <v>       0.07782608       0.55151512       0.40225056 </v>
   <v>       0.95295941       0.52362413       0.39768812 </v>
   <v>       0.15868588       0.51724632       0.55546581 </v>
   <v>       0.15885372       0.50567971       0.46821899 </v>
   <v>       0.45241205       0.52896255       0.39925749 </v>
   <v>       0.47780070       0.43027245       0.39723219 </v>
   <v>       0.48964018       0.64749447       0.54967630 </v>
   <v>       0.49766933       0.65482866       0.46185542 </v>
   <v>       0.47215444       0.92679702       0.39868202 </v>
   <v>       0.57050962       0.05013993       0.39658299 </v>
   <v>       0.35530418       0.84507734       0.55009114 </v>
   <v>       0.34654854       0.84634061       0.46248173 </v>
   <v>       0.04831191       0.47852810       0.60577779 </v>
   <v>       0.92345525       0.45064501       0.60122903 </v>
   <v>       0.84285384       0.49707105       0.53559781 </v>
   <v>       0.84290253       0.48583874       0.44829371 </v>
   <v>       0.52369178       0.57313130       0.60330388 </v>
   <v>       0.54901996       0.47438118       0.60129217 </v>
   <v>       0.50328321       0.34821366       0.53826529 </v>
   <v>       0.51276680       0.35641702       0.45060792 </v>
   <v>       0.42943473       0.95291491       0.60358862 </v>
   <v>       0.52773453       0.07628233       0.60147269 </v>
   <v>       0.65371877       0.15646827       0.53755313 </v>
   <v>       0.64470944       0.15776421       0.44998099 </v>
   <v>       0.26556655       0.63941330       0.49630795 </v>
   <v>       0.37205534       0.73756143       0.49457196 </v>
   <v>       0.36438314       0.63107604       0.49517477 </v>
   <v>       0.73554042       0.36354149       0.50636411 </v>
   <v>       0.62882905       0.26565745       0.50654726 </v>
   <v>       0.63692398       0.37230415       0.50645449 </v>
   <v>       0.07162199       0.51676686       0.50432674 </v>
   <v>       0.04400300       0.52941278       0.44603750 </v>
   <v>       0.97390963       0.51387625       0.44355077 </v>
   <v>       0.14759693       0.53429204       0.50723340 </v>
   <v>       0.48652231       0.55800857       0.50140837 </v>
   <v>       0.47355869       0.51700470       0.44373581 </v>
   <v>       0.48769869       0.46148027       0.44265384 </v>
   <v>       0.47024742       0.61737619       0.50278228 </v>
   <v>       0.44387081       0.93139886       0.50128644 </v>
   <v>       0.48433933       0.95952570       0.44332783 </v>
   <v>       0.53966630       0.02877999       0.44219885 </v>
   <v>       0.38483620       0.85616742       0.50273345 </v>
   <v>       0.95726487       0.47273890       0.55742827 </v>
   <v>       0.02736716       0.48829709       0.55992037 </v>
   <v>       0.92968515       0.48551898       0.49918203 </v>
   <v>       0.85383968       0.46843857       0.49639538 </v>
   <v>       0.52783050       0.48632431       0.55683531 </v>
   <v>       0.51371984       0.54186174       0.55790927 </v>
   <v>       0.51491752       0.44535939       0.49914604 </v>
   <v>       0.53133389       0.38610643       0.49781265 </v>
   <v>       0.51559787       0.04354768       0.55683875 </v>
   <v>       0.46027900       0.97428328       0.55797365 </v>
   <v>       0.55611665       0.07165828       0.49889540 </v>
   <v>       0.61534696       0.14681538       0.49744248 </v>
   <v>       0.30194172       0.71060642       0.49579742 </v>
   <v>       0.40709827       0.70094076       0.49408156 </v>
   <v>       0.29295801       0.59650053       0.49630588 </v>
   <v>       0.41293816       0.80869364       0.49413626 </v>
   <v>       0.39473797       0.58984848       0.49556596 </v>
   <v>       0.19415736       0.60930992       0.49721605 </v>
   <v>       0.69893817       0.29234803       0.50642628 </v>
   <v>       0.59397716       0.30248386       0.50652112 </v>
   <v>       0.70832540       0.40660353       0.50622361 </v>
   <v>       0.58760602       0.19455956       0.50631559 </v>
   <v>       0.60672781       0.41368277       0.50620110 </v>
   <v>       0.80695050       0.39344502       0.50609235 </v>
  </varray>
 </structure>
 <calculation>
  <scstep>
   <time name="dav">  174.19  175.70</time>
   <time name="total">  174.35  175.87</time>
   <energy>
    <i name="alphaZ">     23.93419667 </i>
    <i name="ewald">  22081.73443037 </i>
    <i name="hartreedc"> -28639.78778665 </i>
    <i name="XCdc">    742.52359198 </i>
    <i name="pawpsdc">  19316.96467703 </i>
    <i name="pawaedc"> -19355.57461070 </i>
    <i name="eentropy">     -0.00000000 </i>
    <i name="bandstr">  -2614.40482659 </i>
    <i name="atom">   7963.46374004 </i>
    <i name="e_fr_energy">   -481.14658785 </i>
    <i name="e_wo_entrp">   -481.14658785 </i>
    <i name="e_0_energy">   -481.14658785 </i>
   </energy>
  </scstep>
  <scstep>
   <time name="dav">  201.90  203.58</time>
   <time name="total">  201.91  203.59</time>
   <energy>
    <i name="e_fr_energy">   -481.84589590 </i>
    <i name="e_wo_entrp">   -481.84589590 </i>
    <i name="e_0_energy">   -481.84589590 </i>
   </energy>
  </scstep>
  <scstep>
   <time name="dav">  218.18  220.09</time>
   <time name="total">  218.19  220.10</time>
   <energy>
    <i name="e_fr_energy">   -481.86121096 </i>
    <i name="e_wo_entrp">   -481.86121096 </i>
    <i name="e_0_energy">   -481.86121096 </i>
   </energy>
  </scstep>
  <scstep>
   <time name="dav">  200.07  201.91</time>
   <time name="total">  200.09  201.92</time>
   <energy>
    <i name="e_fr_energy">   -481.86144901 </i>
    <i name="e_wo_entrp">   -481.86144901 </i>
    <i name="e_0_energy">   -481.86144901 </i>
   </energy>
  </scstep>
  <scstep>
   <time name="dav">  196.74  198.44</time>
   <time name="total">  196.75  198.45</time>
   <energy>
    <i name="e_fr_energy">   -481.86145978 </i>
    <i name="e_wo_entrp">   -481.86145978 </i>
    <i name="e_0_energy">   -481.86145978 </i>
   </energy>
  </scstep>
  <scstep>
   <time name="dav">  158.80  160.17</time>
   <time name="total">  158.81  160.18</time>
   <energy>
    <i name="alphaZ">     23.93419667 </i>
    <i name="ewald">  22081.73443037 </i>
    <i name="hartreedc"> -28639.78778665 </i>
    <i name="XCdc">    742.52359198 </i>
    <i name="pawpsdc">  19316.96467703 </i>
    <i name="pawaedc"> -19355.57461070 </i>
    <i name="eentropy">     -0.00000000 </i>
    <i name="bandstr">  -2615.11969886 </i>
    <i name="atom">   7963.46374004 </i>
    <i name="e_fr_energy">   -481.86146012 </i>
    <i name="e_wo_entrp">   -481.86146012 </i>
    <i name="e_0_energy">   -481.86146012 </i>
   </energy>
  </scstep>
  <structure>
   <crystal>
    <varray name="basis" >
     <v>      21.84483528       0.04429734       0.00000000 </v>
     <v>     -10.88416156      19.01180599       0.00000000 </v>
     <v>       0.00000000       0.00000000      20.00000000 </v>
    </varray>
    <i name="volume">   8315.83819635 </i>
    <varray name="rec_basis" >
     <v>       0.04572433       0.02617694       0.00000000 </v>
     <v>      -0.00010654       0.05253790       0.00000000 </v>
     <v>       0.00000000       0.00000000       0.05000000 </v>
    </varray>
   </crystal>
   <varray name="positions" >
    <v>       0.46539778       0.82760567       0.49977751 </v>
    <v>       0.36154096       0.53779654       0.50265242 </v>
    <v>       0.17503314       0.64256022       0.50452889 </v>
    <v>       0.53531961       0.17606785       0.49974941 </v>
    <v>       0.64002535       0.46573479       0.49922452 </v>
    <v>       0.82594239       0.36006932       0.49888813 </v>
    <v>       0.07782608       0.55151512       0.40225056 </v>
    <v>       0.95295941       0.52362413       0.39768812 </v>
    <v>       0.15868588       0.51724632       0.55546581 </v>
    <v>       0.15885372       0.50567971       0.46821899 </v>
    <v>       0.45241205       0.52896255       0.39925749 </v>
    <v>       0.47780070       0.43027245       0.39723219 </v>
    <v>       0.48964018       0.64749447       0.54967630 </v>
    <v>       0.49766933       0.65482866       0.46185542 </v>
    <v>       0.47215444       0.92679702       0.39868202 </v>
    <v>       0.57050962       0.05013993       0.39658299 </v>
    <v>       0.35530418       0.84507734       0.55009114 </v>
    <v>       0.34654854       0.84634061       0.46248173 </v>
    <v>       0.04831191       0.47852810       0.60577779 </v>
    <v>       0.92345525       0.45064501       0.60122903 </v>
    <v>       0.84285384       0.49707105       0.53559781 </v>
    <v>       0.84290253       0.48583874       0.44829371 </v>
    <v>       0.52369178       0.57313130       0.60330388 </v>
    <v>       0.54901996       0.47438118       0.60129217 </v>
    <v>       0.50328321       0.34821366       0.53826529 </v>
    <v>       0.51276680       0.35641702       0.45060792 </v>
    <v>       0.42943473       0.95291491       0.60358862 </v>
    <v>       0.52773453       0.07628233       0.60147269 </v>
    <v>       0.65371877       0.15646827       0.53755313 </v>
    <v>       0.64470944       0.15776421       0.44998099 </v>
    <v>       0.26556655       0.63941330       0.49630795 </v>
    <v>       0.37205534       0.73756143       0.49457196 </v>
    <v>       0.36438314       0.63107604       0.49517477 </v>
    <v>       0.73554042       0.36354149       0.50636411 </v>
    <v>       0.62882905       0.26565745       0.50654726 </v>
    <v>       0.63692398       0.37230415       0.50645449 </v>
    <v>       0.07162199       0.51676686       0.50432674 </v>
    <v>       0.04400300       0.52941278       0.44603750 </v>
    <v>       0.97390963       0.51387625       0.44355077 </v>
    <v>       0.14759693       0.53429204       0.50723340 </v>
    <v>       0.48652231       0.55800857       0.50140837 </v>
    <v>       0.47355869       0.51700470       0.44373581 </v>
    <v>       0.48769869       0.46148027       0.44265384 </v>
    <v>       0.47024742       0.61737619       0.50278228 </v>
    <v>       0.44387081       0.93139886       0.50128644 </v>
    <v>       0.48433933       0.95952570       0.44332783 </v>
    <v>       0.53966630       0.02877999       0.44219885 </v>
    <v>       0.38483620       0.85616742       0.50273345 </v>
    <v>       0.95726487       0.47273890       0.55742827 </v>
    <v>       0.02736716       0.48829709       0.55992037 </v>
    <v>       0.92968515       0.48551898       0.49918203 </v>
    <v>       0.85383968       0.46843857       0.49639538 </v>
    <v>       0.52783050       0.48632431       0.55683531 </v>
    <v>       0.51371984       0.54186174       0.55790927 </v>
    <v>       0.51491752       0.44535939       0.49914604 </v>
    <v>       0.53133389       0.38610643       0.49781265 </v>
    <v>       0.51559787       0.04354768       0.55683875 </v>
    <v>       0.46027900       0.97428328       0.55797365 </v>
    <v>       0.55611665       0.07165828       0.49889540 </v>
    <v>       0.61534696       0.14681538       0.49744248 </v>
    <v>       0.30194172       0.71060642       0.49579742 </v>
    <v>       0.40709827       0.70094076       0.49408156 </v>
    <v>       0.29295801       0.59650053       0.49630588 </v>
    <v>       0.41293816       0.80869364       0.49413626 </v>
    <v>       0.39473797       0.58984848       0.49556596 </v>
    <v>       0.19415736       0.60930992       0.49721605 </v>
    <v>       0.69893817       0.29234803       0.50642628 </v>
    <v>       0.59397716       0.30248386       0.50652112 </v>
    <v>       0.70832540       0.40660353       0.50622361 </v>
    <v>       0.58760602       0.19455956       0.50631559 </v>
    <v>       0.60672781       0.41368277       0.50620110 </v>
    <v>       0.80695050       0.39344502       0.50609235 </v>
   </varray>
  </structure>
  <varray name="forces" >
   <v>      -0.00385657      -0.00075311      -0.00054987 </v>
   <v>      -0.00031458       0.00126133       0.00027561 </v>
   <v>       0.00140257      -0.00143294       0.00036914 </v>
   <v>       0.00538586       0.00284068      -0.00032363 </v>
   <v>       0.00025764      -0.00278418       0.00269542 </v>
   <v>      -0.00058225       0.00053481      -0.00003195 </v>
   <v>      -0.00305986      -0.00466864       0.00123020 </v>
   <v>       0.00163334      -0.00077948       0.00186112 </v>
   <v>      -0.00126349       0.00012108      -0.00099226 </v>
   <v>      -0.00205297       0.00049216      -0.00061450 </v>
   <v>       0.00324536      -0.00042028       0.00157794 </v>
   <v>       0.00159801       0.00193135       0.00121934 </v>
   <v>      -0.00240572      -0.00226116      -0.00307622 </v>
   <v>      -0.00147567      -0.00343324       0.00137624 </v>
   <v>      -0.00137038       0.00315647       0.00134757 </v>
   <v>      -0.00381000      -0.00242266       0.00040033 </v>
   <v>       0.00106697       0.00065504      -0.00100166 </v>
   <v>       0.00198761       0.00030554       0.00168090 </v>
   <v>      -0.00170725       0.00231299      -0.00269951 </v>
   <v>       0.00347470       0.00316118      -0.00191025 </v>
   <v>       0.00172536      -0.00113695       0.00019997 </v>
   <v>       0.00120779      -0.00038618       0.00056052 </v>
   <v>      -0.00145796      -0.00262889      -0.00070603 </v>
   <v>      -0.00314190      -0.00006536       0.00060333 </v>
   <v>       0.00192320       0.00301547      -0.00126667 </v>
   <v>       0.00147076       0.00322196       0.00039249 </v>
   <v>       0.00295241       0.00215655      -0.00065832 </v>
   <v>       0.00333517      -0.00344637      -0.00197923 </v>
   <v>      -0.00193245      -0.00160981       0.00020539 </v>
   <v>      -0.00084251      -0.00075331       0.00225587 </v>
   <v>       0.00207350       0.00046998      -0.00004398 </v>
   <v>      -0.00527615      -0.00362174       0.00025865 </v>
   <v>       0.00264967      -0.00197910       0.00026569 </v>
   <v>      -0.00396633       0.00162357      -0.00158522 </v>
   <v>       0.00181397       0.00074652       0.00164485 </v>
   <v>       0.00194226      -0.00043199      -0.00266847 </v>
   <v>       0.00103171       0.00299465      -0.00033968 </v>
   <v>       0.00171725       0.00049109      -0.00115638 </v>
   <v>      -0.00090716      -0.00172846      -0.00161713 </v>
   <v>      -0.00305919       0.00048667      -0.00012937 </v>
   <v>      -0.00491066       0.00267662      -0.00029558 </v>
   <v>      -0.00025215       0.00212598       0.00016389 </v>
   <v>       0.00273024      -0.00040593       0.00039370 </v>
   <v>      -0.00103923      -0.00361919      -0.00022582 </v>
   <v>       0.00101860      -0.00148976       0.00011149 </v>
   <v>      -0.00139572      -0.00052832      -0.00063538 </v>
   <v>      -0.00083984       0.00115845       0.00028221 </v>
   <v>       0.00120977       0.00128546       0.00014378 </v>
   <v>      -0.00193639       0.00121943       0.00082686 </v>
   <v>       0.00134950      -0.00028716       0.00245911 </v>
   <v>      -0.00099500      -0.00203537      -0.00000875 </v>
   <v>       0.00262005       0.00005953       0.00012878 </v>
   <v>       0.00035982      -0.00067058       0.00161452 </v>
   <v>      -0.00388868       0.00143028      -0.00095056 </v>
   <v>       0.00295374      -0.00027115       0.00091030 </v>
   <v>      -0.00146626       0.00309776      -0.00012429 </v>
   <v>       0.00130586      -0.00018022      -0.00015194 </v>
   <v>       0.00232423      -0.00004385      -0.00067853 </v>
   <v>      -0.00017983       0.00059363       0.00046110 </v>
   <v>      -0.00123257      -0.00423853      -0.00038634 </v>
   <v>       0.00027778       0.00013372       0.00039003 </v>
   <v>      -0.00289752       0.00006688       0.00019854 </v>
   <v>       0.00450319       0.00122669       0.00099379 </v>
   <v>      -0.00216584      -0.00017756       0.00072267 </v>
   <v>      -0.00018117       0.00289112      -0.00069090 </v>
   <v>       0.00016985       0.00198310      -0.00060271 </v>
   <v>       0.00118617      -0.00045667      -0.00135184 </v>
   <v>       0.00184040      -0.00446704      -0.00242057 </v>
   <v>      -0.00162125       0.00244374       0.00179205 </v>
   <v>      -0.00035912       0.00438010      -0.00160291 </v>
   <v>       0.00232782       0.00102227       0.00110594 </v>
   <v>      -0.00222848      -0.00415870       0.00035717 </v>
  </varray>
  <varray name="stress" >
   <v>      -0.00744440      -0.00311275       0.00358989 </v>
   <v>      -0.00311275      -0.00659792      -0.00334492 </v>
   <v>       0.00358989      -0.00334491      -0.20231979 </v>
  </varray>
  <energy>
   <i name="e_fr_energy">   -483.12050442 </i>
   <i name="e_wo_entrp">   -483.12050442 </i>
   <i name="e_0_energy">     -0.00000000 </i>
  </energy>
  <time name="totalsc"> 1299.91 1311.52</time>
  <eigenvalues>
   <array>
    <dimension dim="1">band</dimension>
    <dimension dim="2">kpoint</dimension>
    <dimension dim="3">spin</dimension>
    <field>eigene</field>
    <field>occ</field>
    <set>
     <set comment="spin 1">
      <set comment="kpoint 1">
       <r>  -25.0274    1.0000 </r>
       <r>  -25.0238    1.0000 </r>
       <r>  -23.5002    1.0000 </r>
       <r>  -23.4974    1.0000 </r>
       <r>  -23.4913    1.0000 </r>
       <r>  -23.4877    1.0000 </r>
       <r>  -22.1587    1.0000 </r>
       <r>  -22.0774    1.0000 </r>
       <r>  -21.3091    1.0000 </r>
       <r>  -21.3000    1.0000 </r>
       <r>  -20.9860    1.0000 </r>
       <r>  -20.8744    1.0000 </r>
       <r>  -20.8706    1.0000 </r>
       <r>  -20.6212    1.0000 </r>
       <r>  -20.6183    1.0000 </r>
       <r>  -19.0803    1.0000 </r>
       <r>  -19.0720    1.0000 </r>
       <r>  -18.9897    1.0000 </r>
       <r>  -18.2358    1.0000 </r>
       <r>  -18.2345    1.0000 </r>
       <r>  -18.2167    1.0000 </r>
       <r>  -17.6282    1.0000 </r>
       <r>  -17.6170    1.0000 </r>
       <r>  -17.3096    1.0000 </r>
       <r>  -16.4020    1.0000 </r>
       <r>  -16.3907    1.0000 </r>
       <r>  -16.0119    1.0000 </r>
       <r>  -15.2228    1.0000 </r>
       <r>  -15.2189    1.0000 </r>
       <r>  -14.8454    1.0000 </r>
       <r>  -14.8377    1.0000 </r>
       <r>  -14.8357    1.0000 </r>
       <r>  -14.7555    1.0000 </r>
       <r>  -14.7400    1.0000 </r>
       <r>  -14.4290    1.0000 </r>
       <r>  -13.9598    1.0000 </r>
       <r>  -13.9471    1.0000 </r>
       <r>  -13.9359    1.0000 </r>
       <r>  -13.6546    1.0000 </r>
       <r>  -12.8123    1.0000 </r>
       <r>  -12.7976    1.0000 </r>
       <r>  -12.5035    1.0000 </r>
       <r>  -12.4958    1.0000 </r>
       <r>  -11.9280    1.0000 </r>
       <r>  -11.9212    1.0000 </r>
       <r>  -11.7183    1.0000 </r>
       <r>  -11.6168    1.0000 </r>
       <r>  -11.5248    1.0000 </r>
       <r>  -11.5091    1.0000 </r>
       <r>  -11.1035    1.0000 </r>
       <r>  -11.0953    1.0000 </r>
       <r>  -10.9694    1.0000 </r>
       <r>  -10.7779    1.0000 </r>
       <r>  -10.7763    1.0000 </r>
       <r>  -10.7609    1.0000 </r>
       <r>  -10.6313    1.0000 </r>
       <r>  -10.5305    1.0000 </r>
       <r>  -10.5222    1.0000 </r>
       <r>  -10.4553    1.0000 </r>
       <r>  -10.4412    1.0000 </r>
       <r>  -10.2891    1.0000 </r>
       <r>  -10.1987    1.0000 </r>
       <r>  -10.1750    1.0000 </r>
       <r>  -10.1363    1.0000 </r>
       <r>   -9.9811    1.0000 </r>
       <r>   -9.9726    1.0000 </r>
       <r>   -9.9435    1.0000 </r>
       <r>   -9.5779    1.0000 </r>
       <r>   -9.5759    1.0000 </r>
       <r>   -9.5724    1.0000 </r>
       <r>   -9.3807    1.0000 </r>
       <r>   -9.1594    1.0000 </r>
       <r>   -9.1523    1.0000 </r>
       <r>   -9.1052    1.0000 </r>
       <r>   -8.6959    1.0000 </r>
       <r>   -8.6873    1.0000 </r>
       <r>   -8.6442    1.0000 </r>
       <r>   -8.3010    1.0000 </r>
       <r>   -8.1545    1.0000 </r>
       <r>   -8.1471    1.0000 </r>
       <r>   -8.1426    1.0000 </r>
       <r>   -8.0010    1.0000 </r>
       <r>   -7.9675    1.0000 </r>
       <r>   -7.9543    1.0000 </r>
       <r>   -7.8780    1.0000 </r>
       <r>   -7.7501    1.0000 </r>
       <r>   -7.7438    1.0000 </r>
       <r>   -7.6931    1.0000 </r>
       <r>   -7.6904    1.0000 </r>
       <r>   -6.1826    1.0000 </r>
       <r>   -6.1755    1.0000 </r>
       <r>   -6.1586    1.0000 </r>
       <r>   -6.0298    1.0000 </r>
       <r>   -6.0192    1.0000 </r>
       <r>   -5.9892    1.0000 </r>
       <r>   -5.4540    1.0000 </r>
       <r>   -5.4484    1.0000 </r>
       <r>   -5.3925    1.0000 </r>
       <r>   -5.3866    1.0000 </r>
       <r>   -5.2210    1.0000 </r>
       <r>   -5.1565    1.0000 </r>
       <r>   -5.0118    1.0000 </r>
       <r>   -5.0100    1.0000 </r>
       <r>   -4.9753    1.0000 </r>
       <r>   -4.9718    1.0000 </r>
       <r>   -1.2533    0.0000 </r>
       <r>   -1.2433    0.0000 </r>
       <r>   -1.2094    0.0000 </r>
       <r>   -1.0271    0.0000 </r>
       <r>   -1.0239    0.0000 </r>
       <r>   -1.0018    0.0000 </r>
       <r>   -0.2939    0.0000 </r>
       <r>   -0.2611    0.0000 </r>
       <r>   -0.2550    0.0000 </r>
       <r>   -0.1806    0.0000 </r>
       <r>   -0.1706    0.0000 </r>
       <r>   -0.0232    0.0000 </r>
       <r>   -0.0189    0.0000 </r>
       <r>    0.0306    0.0000 </r>
       <r>    0.1386    0.0000 </r>
       <r>    0.1438    0.0000 </r>
       <r>    0.1521    0.0000 </r>
       <r>    0.4091    0.0000 </r>
       <r>    0.4146    0.0000 </r>
       <r>    0.5164    0.0000 </r>
       <r>    0.5571    0.0000 </r>
       <r>    0.5626    0.0000 </r>
       <r>    0.5765    0.0000 </r>
       <r>    0.5875    0.0000 </r>
       <r>    0.7249    0.0000 </r>
       <r>    0.8207    0.0000 </r>
       <r>    0.8254    0.0000 </r>
       <r>    0.8658    0.0000 </r>
       <r>    0.8759    0.0000 </r>
       <r>    0.8774    0.0000 </r>
       <r>    0.9419    0.0000 </r>
       <r>    0.9459    0.0000 </r>
       <r>    0.9554    0.0000 </r>
       <r>    0.9630    0.0000 </r>
       <r>    0.9845    0.0000 </r>
       <r>    0.9893    0.0000 </r>
       <r>    1.0353    0.0000 </r>
       <r>    1.1477    0.0000 </r>
       <r>    1.1705    0.0000 </r>
      </set>
      <set comment="kpoint 2">
       <r>  -25.0274    1.0000 </r>
       <r>  -25.0238    1.0000 </r>
       <r>  -23.5002    1.0000 </r>
       <r>  -23.4973    1.0000 </r>
       <r>  -23.4913    1.0000 </r>
       <r>  -23.4877    1.0000 </r>
       <r>  -22.1586    1.0000 </r>
       <r>  -22.0775    1.0000 </r>
       <r>  -21.3088    1.0000 </r>
       <r>  -21.3000    1.0000 </r>
       <r>  -20.9874    1.0000 </r>
       <r>  -20.8732    1.0000 </r>
       <r>  -20.8704    1.0000 </r>
       <r>  -20.6214    1.0000 </r>
       <r>  -20.6183    1.0000 </r>
       <r>  -19.0802    1.0000 </r>
       <r>  -19.0720    1.0000 </r>
       <r>  -18.9898    1.0000 </r>
       <r>  -18.2358    1.0000 </r>
       <r>  -18.2345    1.0000 </r>
       <r>  -18.2167    1.0000 </r>
       <r>  -17.6279    1.0000 </r>
       <r>  -17.6169    1.0000 </r>
       <r>  -17.3102    1.0000 </r>
       <r>  -16.4016    1.0000 </r>
       <r>  -16.3905    1.0000 </r>
       <r>  -16.0125    1.0000 </r>
       <r>  -15.2225    1.0000 </r>
       <r>  -15.2186    1.0000 </r>
       <r>  -14.8483    1.0000 </r>
       <r>  -14.8372    1.0000 </r>
       <r>  -14.8345    1.0000 </r>
       <r>  -14.7553    1.0000 </r>
       <r>  -14.7398    1.0000 </r>
       <r>  -14.4283    1.0000 </r>
       <r>  -13.9642    1.0000 </r>
       <r>  -13.9499    1.0000 </r>
       <r>  -13.9289    1.0000 </r>
       <r>  -13.6548    1.0000 </r>
       <r>  -12.8123    1.0000 </r>
       <r>  -12.7978    1.0000 </r>
       <r>  -12.5030    1.0000 </r>
       <r>  -12.4956    1.0000 </r>
       <r>  -11.9278    1.0000 </r>
       <r>  -11.9237    1.0000 </r>
       <r>  -11.7162    1.0000 </r>
       <r>  -11.6168    1.0000 </r>
       <r>  -11.5245    1.0000 </r>
       <r>  -11.5092    1.0000 </r>
       <r>  -11.1039    1.0000 </r>
       <r>  -11.0957    1.0000 </r>
       <r>  -10.9690    1.0000 </r>
       <r>  -10.7777    1.0000 </r>
       <r>  -10.7762    1.0000 </r>
       <r>  -10.7609    1.0000 </r>
       <r>  -10.6325    1.0000 </r>
       <r>  -10.5304    1.0000 </r>
       <r>  -10.5221    1.0000 </r>
       <r>  -10.4552    1.0000 </r>
       <r>  -10.4403    1.0000 </r>
       <r>  -10.2901    1.0000 </r>
       <r>  -10.1980    1.0000 </r>
       <r>  -10.1746    1.0000 </r>
       <r>  -10.1365    1.0000 </r>
       <r>   -9.9812    1.0000 </r>
       <r>   -9.9726    1.0000 </r>
       <r>   -9.9435    1.0000 </r>
       <r>   -9.5951    1.0000 </r>
       <r>   -9.5743    1.0000 </r>
       <r>   -9.5568    1.0000 </r>
       <r>   -9.3804    1.0000 </r>
       <r>   -9.1596    1.0000 </r>
       <r>   -9.1524    1.0000 </r>
       <r>   -9.1054    1.0000 </r>
       <r>   -8.6960    1.0000 </r>
       <r>   -8.6874    1.0000 </r>
       <r>   -8.6445    1.0000 </r>
       <r>   -8.3008    1.0000 </r>
       <r>   -8.1549    1.0000 </r>
       <r>   -8.1467    1.0000 </r>
       <r>   -8.1424    1.0000 </r>
       <r>   -8.0009    1.0000 </r>
       <r>   -7.9675    1.0000 </r>
       <r>   -7.9543    1.0000 </r>
       <r>   -7.8785    1.0000 </r>
       <r>   -7.7499    1.0000 </r>
       <r>   -7.7438    1.0000 </r>
       <r>   -7.6931    1.0000 </r>
       <r>   -7.6904    1.0000 </r>
       <r>   -6.1826    1.0000 </r>
       <r>   -6.1756    1.0000 </r>
       <r>   -6.1586    1.0000 </r>
       <r>   -6.0298    1.0000 </r>
       <r>   -6.0192    1.0000 </r>
       <r>   -5.9893    1.0000 </r>
       <r>   -5.4539    1.0000 </r>
       <r>   -5.4484    1.0000 </r>
       <r>   -5.3926    1.0000 </r>
       <r>   -5.3866    1.0000 </r>
       <r>   -5.2209    1.0000 </r>
       <r>   -5.1566    1.0000 </r>
       <r>   -5.0118    1.0000 </r>
       <r>   -5.0100    1.0000 </r>
       <r>   -4.9753    1.0000 </r>
       <r>   -4.9718    1.0000 </r>
       <r>   -1.2533    0.0000 </r>
       <r>   -1.2433    0.0000 </r>
       <r>   -1.2094    0.0000 </r>
       <r>   -1.0271    0.0000 </r>
       <r>   -1.0239    0.0000 </r>
       <r>   -1.0018    0.0000 </r>
       <r>   -0.2937    0.0000 </r>
       <r>   -0.2611    0.0000 </r>
       <r>   -0.2549    0.0000 </r>
       <r>   -0.1806    0.0000 </r>
       <r>   -0.1708    0.0000 </r>
       <r>   -0.0253    0.0000 </r>
       <r>   -0.0199    0.0000 </r>
       <r>    0.0333    0.0000 </r>
       <r>    0.1391    0.0000 </r>
       <r>    0.1441    0.0000 </r>
       <r>    0.1524    0.0000 </r>
       <r>    0.4084    0.0000 </r>
       <r>    0.4138    0.0000 </r>
       <r>    0.5171    0.0000 </r>
       <r>    0.5559    0.0000 </r>
       <r>    0.5624    0.0000 </r>
       <r>    0.5778    0.0000 </r>
       <r>    0.5880    0.0000 </r>
       <r>    0.7252    0.0000 </r>
       <r>    0.8200    0.0000 </r>
       <r>    0.8252    0.0000 </r>
       <r>    0.8580    0.0000 </r>
       <r>    0.8686    0.0000 </r>
       <r>    0.8913    0.0000 </r>
       <r>    0.9393    0.0000 </r>
       <r>    0.9427    0.0000 </r>
       <r>    0.9580    0.0000 </r>
       <r>    0.9607    0.0000 </r>
       <r>    0.9891    0.0000 </r>
       <r>    0.9933    0.0000 </r>
       <r>    1.0365    0.0000 </r>
       <r>    1.1486    0.0000 </r>
       <r>    1.1700    0.0000 </r>
      </set>
      <set comment="kpoint 3">
       <r>  -25.0274    1.0000 </r>
       <r>  -25.0238    1.0000 </r>
       <r>  -23.5002    1.0000 </r>
       <r>  -23.4973    1.0000 </r>
       <r>  -23.4913    1.0000 </r>
       <r>  -23.4877    1.0000 </r>
       <r>  -22.1583    1.0000 </r>
       <r>  -22.0780    1.0000 </r>
       <r>  -21.3081    1.0000 </r>
       <r>  -21.2997    1.0000 </r>
       <r>  -20.9916    1.0000 </r>
       <r>  -20.8714    1.0000 </r>
       <r>  -20.8682    1.0000 </r>
       <r>  -20.6220    1.0000 </r>
       <r>  -20.6183    1.0000 </r>
       <r>  -19.0800    1.0000 </r>
       <r>  -19.0719    1.0000 </r>
       <r>  -18.9903    1.0000 </r>
       <r>  -18.2358    1.0000 </r>
       <r>  -18.2345    1.0000 </r>
       <r>  -18.2167    1.0000 </r>
       <r>  -17.6271    1.0000 </r>
       <r>  -17.6165    1.0000 </r>
       <r>  -17.3119    1.0000 </r>
       <r>  -16.4004    1.0000 </r>
       <r>  -16.3898    1.0000 </r>
       <r>  -16.0143    1.0000 </r>
       <r>  -15.2217    1.0000 </r>
       <r>  -15.2176    1.0000 </r>
       <r>  -14.8538    1.0000 </r>
       <r>  -14.8390    1.0000 </r>
       <r>  -14.8309    1.0000 </r>
       <r>  -14.7547    1.0000 </r>
       <r>  -14.7389    1.0000 </r>
       <r>  -14.4262    1.0000 </r>
       <r>  -13.9748    1.0000 </r>
       <r>  -13.9514    1.0000 </r>
       <r>  -13.9175    1.0000 </r>
       <r>  -13.6554    1.0000 </r>
       <r>  -12.8124    1.0000 </r>
       <r>  -12.7982    1.0000 </r>
       <r>  -12.5017    1.0000 </r>
       <r>  -12.4950    1.0000 </r>
       <r>  -11.9307    1.0000 </r>
       <r>  -11.9273    1.0000 </r>
       <r>  -11.7104    1.0000 </r>
       <r>  -11.6167    1.0000 </r>
       <r>  -11.5238    1.0000 </r>
       <r>  -11.5096    1.0000 </r>
       <r>  -11.1050    1.0000 </r>
       <r>  -11.0965    1.0000 </r>
       <r>  -10.9679    1.0000 </r>
       <r>  -10.7773    1.0000 </r>
       <r>  -10.7760    1.0000 </r>
       <r>  -10.7607    1.0000 </r>
       <r>  -10.6358    1.0000 </r>
       <r>  -10.5301    1.0000 </r>
       <r>  -10.5218    1.0000 </r>
       <r>  -10.4550    1.0000 </r>
       <r>  -10.4375    1.0000 </r>
       <r>  -10.2930    1.0000 </r>
       <r>  -10.1961    1.0000 </r>
       <r>  -10.1734    1.0000 </r>
       <r>  -10.1372    1.0000 </r>
       <r>   -9.9812    1.0000 </r>
       <r>   -9.9727    1.0000 </r>
       <r>   -9.9434    1.0000 </r>
       <r>   -9.6141    1.0000 </r>
       <r>   -9.5743    1.0000 </r>
       <r>   -9.5380    1.0000 </r>
       <r>   -9.3793    1.0000 </r>
       <r>   -9.1603    1.0000 </r>
       <r>   -9.1525    1.0000 </r>
       <r>   -9.1062    1.0000 </r>
       <r>   -8.6962    1.0000 </r>
       <r>   -8.6875    1.0000 </r>
       <r>   -8.6452    1.0000 </r>
       <r>   -8.3001    1.0000 </r>
       <r>   -8.1559    1.0000 </r>
       <r>   -8.1458    1.0000 </r>
       <r>   -8.1416    1.0000 </r>
       <r>   -8.0007    1.0000 </r>
       <r>   -7.9675    1.0000 </r>
       <r>   -7.9543    1.0000 </r>
       <r>   -7.8800    1.0000 </r>
       <r>   -7.7493    1.0000 </r>
       <r>   -7.7436    1.0000 </r>
       <r>   -7.6931    1.0000 </r>
       <r>   -7.6904    1.0000 </r>
       <r>   -6.1825    1.0000 </r>
       <r>   -6.1756    1.0000 </r>
       <r>   -6.1586    1.0000 </r>
       <r>   -6.0297    1.0000 </r>
       <r>   -6.0193    1.0000 </r>
       <r>   -5.9894    1.0000 </r>
       <r>   -5.4537    1.0000 </r>
       <r>   -5.4483    1.0000 </r>
       <r>   -5.3929    1.0000 </r>
       <r>   -5.3867    1.0000 </r>
       <r>   -5.2206    1.0000 </r>
       <r>   -5.1570    1.0000 </r>
       <r>   -5.0116    1.0000 </r>
       <r>   -5.0099    1.0000 </r>
       <r>   -4.9754    1.0000 </r>
       <r>   -4.9719    1.0000 </r>
       <r>   -1.2531    0.0000 </r>
       <r>   -1.2432    0.0000 </r>
       <r>   -1.2095    0.0000 </r>
       <r>   -1.0271    0.0000 </r>
       <r>   -1.0239    0.0000 </r>
       <r>   -1.0019    0.0000 </r>
       <r>   -0.2931    0.0000 </r>
       <r>   -0.2611    0.0000 </r>
       <r>   -0.2546    0.0000 </r>
       <r>   -0.1807    0.0000 </r>
       <r>   -0.1711    0.0000 </r>
       <r>   -0.0319    0.0000 </r>
       <r>   -0.0213    0.0000 </r>
       <r>    0.0400    0.0000 </r>
       <r>    0.1406    0.0000 </r>
       <r>    0.1450    0.0000 </r>
       <r>    0.1536    0.0000 </r>
       <r>    0.4058    0.0000 </r>
       <r>    0.4122    0.0000 </r>
       <r>    0.5188    0.0000 </r>
       <r>    0.5523    0.0000 </r>
       <r>    0.5619    0.0000 </r>
       <r>    0.5814    0.0000 </r>
       <r>    0.5895    0.0000 </r>
       <r>    0.7259    0.0000 </r>
       <r>    0.8172    0.0000 </r>
       <r>    0.8241    0.0000 </r>
       <r>    0.8429    0.0000 </r>
       <r>    0.8689    0.0000 </r>
       <r>    0.9023    0.0000 </r>
       <r>    0.9323    0.0000 </r>
       <r>    0.9397    0.0000 </r>
       <r>    0.9548    0.0000 </r>
       <r>    0.9649    0.0000 </r>
       <r>    0.9972    0.0000 </r>
       <r>    1.0051    0.0000 </r>
       <r>    1.0400    0.0000 </r>
       <r>    1.1512    0.0000 </r>
       <r>    1.1681    0.0000 </r>
      </set>
      <set comment="kpoint 4">
       <r>  -25.0274    1.0000 </r>
       <r>  -25.0238    1.0000 </r>
       <r>  -23.5002    1.0000 </r>
       <r>  -23.4973    1.0000 </r>
       <r>  -23.4913    1.0000 </r>
       <r>  -23.4877    1.0000 </r>
       <r>  -22.1577    1.0000 </r>
       <r>  -22.0787    1.0000 </r>
       <r>  -21.3070    1.0000 </r>
       <r>  -21.2992    1.0000 </r>
       <r>  -20.9980    1.0000 </r>
       <r>  -20.8711    1.0000 </r>
       <r>  -20.8626    1.0000 </r>
       <r>  -20.6231    1.0000 </r>
       <r>  -20.6183    1.0000 </r>
       <r>  -19.0796    1.0000 </r>
       <r>  -19.0718    1.0000 </r>
       <r>  -18.9910    1.0000 </r>
       <r>  -18.2358    1.0000 </r>
       <r>  -18.2345    1.0000 </r>
       <r>  -18.2167    1.0000 </r>
       <r>  -17.6258    1.0000 </r>
       <r>  -17.6157    1.0000 </r>
       <r>  -17.3148    1.0000 </r>
       <r>  -16.3988    1.0000 </r>
       <r>  -16.3882    1.0000 </r>
       <r>  -16.0173    1.0000 </r>
       <r>  -15.2209    1.0000 </r>
       <r>  -15.2153    1.0000 </r>
       <r>  -14.8605    1.0000 </r>
       <r>  -14.8421    1.0000 </r>
       <r>  -14.8272    1.0000 </r>
       <r>  -14.7537    1.0000 </r>
       <r>  -14.7377    1.0000 </r>
       <r>  -14.4226    1.0000 </r>
       <r>  -13.9873    1.0000 </r>
       <r>  -13.9519    1.0000 </r>
       <r>  -13.9055    1.0000 </r>
       <r>  -13.6563    1.0000 </r>
       <r>  -12.8126    1.0000 </r>
       <r>  -12.7989    1.0000 </r>
       <r>  -12.5003    1.0000 </r>
       <r>  -12.4933    1.0000 </r>
       <r>  -11.9416    1.0000 </r>
       <r>  -11.9264    1.0000 </r>
       <r>  -11.7017    1.0000 </r>
       <r>  -11.6165    1.0000 </r>
       <r>  -11.5226    1.0000 </r>
       <r>  -11.5101    1.0000 </r>
       <r>  -11.1072    1.0000 </r>
       <r>  -11.0977    1.0000 </r>
       <r>  -10.9659    1.0000 </r>
       <r>  -10.7765    1.0000 </r>
       <r>  -10.7758    1.0000 </r>
       <r>  -10.7604    1.0000 </r>
       <r>  -10.6411    1.0000 </r>
       <r>  -10.5296    1.0000 </r>
       <r>  -10.5214    1.0000 </r>
       <r>  -10.4549    1.0000 </r>
       <r>  -10.4330    1.0000 </r>
       <r>  -10.2974    1.0000 </r>
       <r>  -10.1937    1.0000 </r>
       <r>  -10.1710    1.0000 </r>
       <r>  -10.1382    1.0000 </r>
       <r>   -9.9812    1.0000 </r>
       <r>   -9.9727    1.0000 </r>
       <r>   -9.9432    1.0000 </r>
       <r>   -9.6330    1.0000 </r>
       <r>   -9.5743    1.0000 </r>
       <r>   -9.5193    1.0000 </r>
       <r>   -9.3776    1.0000 </r>
       <r>   -9.1615    1.0000 </r>
       <r>   -9.1526    1.0000 </r>
       <r>   -9.1074    1.0000 </r>
       <r>   -8.6965    1.0000 </r>
       <r>   -8.6877    1.0000 </r>
       <r>   -8.6464    1.0000 </r>
       <r>   -8.2989    1.0000 </r>
       <r>   -8.1573    1.0000 </r>
       <r>   -8.1451    1.0000 </r>
       <r>   -8.1397    1.0000 </r>
       <r>   -8.0003    1.0000 </r>
       <r>   -7.9676    1.0000 </r>
       <r>   -7.9544    1.0000 </r>
       <r>   -7.8824    1.0000 </r>
       <r>   -7.7485    1.0000 </r>
       <r>   -7.7432    1.0000 </r>
       <r>   -7.6932    1.0000 </r>
       <r>   -7.6904    1.0000 </r>
       <r>   -6.1825    1.0000 </r>
       <r>   -6.1756    1.0000 </r>
       <r>   -6.1586    1.0000 </r>
       <r>   -6.0296    1.0000 </r>
       <r>   -6.0193    1.0000 </r>
       <r>   -5.9896    1.0000 </r>
       <r>   -5.4533    1.0000 </r>
       <r>   -5.4482    1.0000 </r>
       <r>   -5.3933    1.0000 </r>
       <r>   -5.3868    1.0000 </r>
       <r>   -5.2202    1.0000 </r>
       <r>   -5.1575    1.0000 </r>
       <r>   -5.0113    1.0000 </r>
       <r>   -5.0098    1.0000 </r>
       <r>   -4.9756    1.0000 </r>
       <r>   -4.9719    1.0000 </r>
       <r>   -1.2529    0.0000 </r>
       <r>   -1.2432    0.0000 </r>
       <r>   -1.2098    0.0000 </r>
       <r>   -1.0272    0.0000 </r>
       <r>   -1.0239    0.0000 </r>
       <r>   -1.0019    0.0000 </r>
       <r>   -0.2921    0.0000 </r>
       <r>   -0.2610    0.0000 </r>
       <r>   -0.2539    0.0000 </r>
       <r>   -0.1808    0.0000 </r>
       <r>   -0.1717    0.0000 </r>
       <r>   -0.0412    0.0000 </r>
       <r>   -0.0227    0.0000 </r>
       <r>    0.0484    0.0000 </r>
       <r>    0.1430    0.0000 </r>
       <r>    0.1463    0.0000 </r>
       <r>    0.1558    0.0000 </r>
       <r>    0.4006    0.0000 </r>
       <r>    0.4108    0.0000 </r>
       <r>    0.5213    0.0000 </r>
       <r>    0.5465    0.0000 </r>
       <r>    0.5611    0.0000 </r>
       <r>    0.5872    0.0000 </r>
       <r>    0.5920    0.0000 </r>
       <r>    0.7269    0.0000 </r>
       <r>    0.8084    0.0000 </r>
       <r>    0.8211    0.0000 </r>
       <r>    0.8343    0.0000 </r>
       <r>    0.8694    0.0000 </r>
       <r>    0.9063    0.0000 </r>
       <r>    0.9255    0.0000 </r>
       <r>    0.9405    0.0000 </r>
       <r>    0.9501    0.0000 </r>
       <r>    0.9719    0.0000 </r>
       <r>    1.0065    0.0000 </r>
       <r>    1.0206    0.0000 </r>
       <r>    1.0459    0.0000 </r>
       <r>    1.1546    0.0000 </r>
       <r>    1.1655    0.0000 </r>
      </set>
      <set comment="kpoint 5">
       <r>  -25.0274    1.0000 </r>
       <r>  -25.0238    1.0000 </r>
       <r>  -23.5001    1.0000 </r>
       <r>  -23.4973    1.0000 </r>
       <r>  -23.4913    1.0000 </r>
       <r>  -23.4878    1.0000 </r>
       <r>  -22.1570    1.0000 </r>
       <r>  -22.0797    1.0000 </r>
       <r>  -21.3057    1.0000 </r>
       <r>  -21.2982    1.0000 </r>
       <r>  -21.0060    1.0000 </r>
       <r>  -20.8710    1.0000 </r>
       <r>  -20.8552    1.0000 </r>
       <r>  -20.6245    1.0000 </r>
       <r>  -20.6183    1.0000 </r>
       <r>  -19.0790    1.0000 </r>
       <r>  -19.0715    1.0000 </r>
       <r>  -18.9920    1.0000 </r>
       <r>  -18.2358    1.0000 </r>
       <r>  -18.2345    1.0000 </r>
       <r>  -18.2167    1.0000 </r>
       <r>  -17.6244    1.0000 </r>
       <r>  -17.6143    1.0000 </r>
       <r>  -17.3187    1.0000 </r>
       <r>  -16.3973    1.0000 </r>
       <r>  -16.3854    1.0000 </r>
       <r>  -16.0214    1.0000 </r>
       <r>  -15.2201    1.0000 </r>
       <r>  -15.2118    1.0000 </r>
       <r>  -14.8680    1.0000 </r>
       <r>  -14.8460    1.0000 </r>
       <r>  -14.8238    1.0000 </r>
       <r>  -14.7525    1.0000 </r>
       <r>  -14.7361    1.0000 </r>
       <r>  -14.4178    1.0000 </r>
       <r>  -14.0006    1.0000 </r>
       <r>  -13.9522    1.0000 </r>
       <r>  -13.8935    1.0000 </r>
       <r>  -13.6576    1.0000 </r>
       <r>  -12.8129    1.0000 </r>
       <r>  -12.7999    1.0000 </r>
       <r>  -12.4995    1.0000 </r>
       <r>  -12.4898    1.0000 </r>
       <r>  -11.9553    1.0000 </r>
       <r>  -11.9252    1.0000 </r>
       <r>  -11.6911    1.0000 </r>
       <r>  -11.6163    1.0000 </r>
       <r>  -11.5214    1.0000 </r>
       <r>  -11.5101    1.0000 </r>
       <r>  -11.1105    1.0000 </r>
       <r>  -11.0989    1.0000 </r>
       <r>  -10.9631    1.0000 </r>
       <r>  -10.7756    1.0000 </r>
       <r>  -10.7754    1.0000 </r>
       <r>  -10.7599    1.0000 </r>
       <r>  -10.6480    1.0000 </r>
       <r>  -10.5290    1.0000 </r>
       <r>  -10.5207    1.0000 </r>
       <r>  -10.4550    1.0000 </r>
       <r>  -10.4271    1.0000 </r>
       <r>  -10.3027    1.0000 </r>
       <r>  -10.1916    1.0000 </r>
       <r>  -10.1673    1.0000 </r>
       <r>  -10.1395    1.0000 </r>
       <r>   -9.9813    1.0000 </r>
       <r>   -9.9728    1.0000 </r>
       <r>   -9.9430    1.0000 </r>
       <r>   -9.6519    1.0000 </r>
       <r>   -9.5742    1.0000 </r>
       <r>   -9.5008    1.0000 </r>
       <r>   -9.3753    1.0000 </r>
       <r>   -9.1633    1.0000 </r>
       <r>   -9.1527    1.0000 </r>
       <r>   -9.1092    1.0000 </r>
       <r>   -8.6969    1.0000 </r>
       <r>   -8.6880    1.0000 </r>
       <r>   -8.6480    1.0000 </r>
       <r>   -8.2972    1.0000 </r>
       <r>   -8.1590    1.0000 </r>
       <r>   -8.1447    1.0000 </r>
       <r>   -8.1367    1.0000 </r>
       <r>   -7.9999    1.0000 </r>
       <r>   -7.9678    1.0000 </r>
       <r>   -7.9545    1.0000 </r>
       <r>   -7.8857    1.0000 </r>
[...]
       <r>   -26.3424     0.0000     0.0000 </r>
       <r>   -26.2460     0.0000     0.0000 </r>
       <r>   -26.1496     0.0000     0.0000 </r>
       <r>   -26.0531     0.0000     0.0000 </r>
       <r>   -25.9567     0.0000     0.0000 </r>
       <r>   -25.8602     0.0000     0.0000 </r>
       <r>   -25.7638     0.0000     0.0000 </r>
       <r>   -25.6674     0.0000     0.0000 </r>
       <r>   -25.5709     0.0000     0.0000 </r>
       <r>   -25.4745     0.0000     0.0000 </r>
       <r>   -25.3780     0.0000     0.0000 </r>
       <r>   -25.2816     0.0000     0.0000 </r>
       <r>   -25.1852     0.0000     0.0000 </r>
       <r>   -25.0887     0.0000     0.0000 </r>
       <r>   -24.9923    41.4770     4.0000 </r>
       <r>   -24.8958     0.0000     4.0000 </r>
       <r>   -24.7994     0.0000     4.0000 </r>
       <r>   -24.7030     0.0000     4.0000 </r>
       <r>   -24.6065     0.0000     4.0000 </r>
       <r>   -24.5101     0.0000     4.0000 </r>
       <r>   -24.4137     0.0000     4.0000 </r>
       <r>   -24.3172     0.0000     4.0000 </r>
       <r>   -24.2208     0.0000     4.0000 </r>
       <r>   -24.1243     0.0000     4.0000 </r>
       <r>   -24.0279     0.0000     4.0000 </r>
       <r>   -23.9315     0.0000     4.0000 </r>
       <r>   -23.8350     0.0000     4.0000 </r>
       <r>   -23.7386     0.0000     4.0000 </r>
       <r>   -23.6421     0.0000     4.0000 </r>
       <r>   -23.5457     0.0000     4.0000 </r>
       <r>   -23.4493    82.9543    12.0000 </r>
       <r>   -23.3528     0.0000    12.0000 </r>
       <r>   -23.2564     0.0000    12.0000 </r>
       <r>   -23.1600     0.0000    12.0000 </r>
       <r>   -23.0635     0.0000    12.0000 </r>
       <r>   -22.9671     0.0000    12.0000 </r>
       <r>   -22.8706     0.0000    12.0000 </r>
       <r>   -22.7742     0.0000    12.0000 </r>
       <r>   -22.6778     0.0000    12.0000 </r>
       <r>   -22.5813     0.0000    12.0000 </r>
       <r>   -22.4849     0.0000    12.0000 </r>
       <r>   -22.3884     0.0000    12.0000 </r>
       <r>   -22.2920     0.0000    12.0000 </r>
       <r>   -22.1956     0.0000    12.0000 </r>
       <r>   -22.0991    35.6604    15.4390 </r>
       <r>   -22.0027     2.4117    16.0000 </r>
       <r>   -21.9062     0.0000    16.0000 </r>
       <r>   -21.8098     0.0000    16.0000 </r>
       <r>   -21.7134     0.0000    16.0000 </r>
       <r>   -21.6169     0.0000    16.0000 </r>
       <r>   -21.5205     0.0000    16.0000 </r>
       <r>   -21.4241     0.0000    16.0000 </r>
       <r>   -21.3276     0.0257    16.0025 </r>
       <r>   -21.2312    28.5222    18.7531 </r>
       <r>   -21.1347    20.3013    21.2587 </r>
       <r>   -21.0383     2.8419    21.7410 </r>
       <r>   -20.9419     2.0737    22.0000 </r>
       <r>   -20.8454    22.6214    24.1816 </r>
       <r>   -20.7490     3.8386    24.6037 </r>
       <r>   -20.6525    24.0507    27.5536 </r>
       <r>   -20.5561    24.0191    30.0000 </r>
       <r>   -20.4597     0.0000    30.0000 </r>
       <r>   -20.3632     0.0000    30.0000 </r>
       <r>   -20.2668     0.0000    30.0000 </r>
       <r>   -20.1704     0.0000    30.0000 </r>
       <r>   -20.0739     0.0000    30.0000 </r>
       <r>   -19.9775     0.0000    30.0000 </r>
       <r>   -19.8810     0.0000    30.0000 </r>
       <r>   -19.7846     0.0000    30.0000 </r>
       <r>   -19.6882     0.0000    30.0000 </r>
       <r>   -19.5917     0.0000    30.0000 </r>
       <r>   -19.4953     0.0000    30.0000 </r>
       <r>   -19.3988     0.0000    30.0000 </r>
       <r>   -19.3024     0.0000    30.0000 </r>
       <r>   -19.2060     0.0000    30.0000 </r>
       <r>   -19.1095     0.0001    30.0000 </r>
       <r>   -19.0131    56.0025    35.4008 </r>
       <r>   -18.9167     2.7583    36.0000 </r>
       <r>   -18.8202     0.0000    36.0000 </r>
       <r>   -18.7238     0.0000    36.0000 </r>
       <r>   -18.6273     0.0000    36.0000 </r>
       <r>   -18.5309     0.0000    36.0000 </r>
       <r>   -18.4345     0.0000    36.0000 </r>
       <r>   -18.3380     0.0000    36.0000 </r>
       <r>   -18.2416     7.7365    36.7461 </r>
       <r>   -18.1451    20.7337    42.0000 </r>
       <r>   -18.0487     0.0000    42.0000 </r>
       <r>   -17.9523     0.0000    42.0000 </r>
       <r>   -17.8558     0.0000    42.0000 </r>
       <r>   -17.7594     0.0000    42.0000 </r>
       <r>   -17.6629     0.0000    42.0000 </r>
       <r>   -17.5665    25.3192    44.4418 </r>
       <r>   -17.4701    17.0072    46.1570 </r>
       <r>   -17.3736    11.9530    47.6031 </r>
       <r>   -17.2772     3.4560    48.0000 </r>
       <r>   -17.1808     0.0000    48.0000 </r>
       <r>   -17.0843     0.0000    48.0000 </r>
       <r>   -16.9879     0.0000    48.0000 </r>
       <r>   -16.8914     0.0000    48.0000 </r>
       <r>   -16.7950     0.0000    48.0000 </r>
       <r>   -16.6986     0.0000    48.0000 </r>
       <r>   -16.6021     0.0000    48.0000 </r>
       <r>   -16.5057     0.0000    48.0000 </r>
       <r>   -16.4092     1.2384    48.1194 </r>
       <r>   -16.3128     4.5816    50.4423 </r>
       <r>   -16.2164    13.0620    51.7597 </r>
       <r>   -16.1199    15.1288    53.4594 </r>
       <r>   -16.0235     3.2297    53.8448 </r>
       <r>   -15.9271     0.0000    54.0000 </r>
       <r>   -15.8306     0.0000    54.0000 </r>
       <r>   -15.7342     0.0000    54.0000 </r>
       <r>   -15.6377     0.0000    54.0000 </r>
       <r>   -15.5413     0.0000    54.0000 </r>
       <r>   -15.4449     0.0000    54.0000 </r>
       <r>   -15.3484     0.0000    54.0000 </r>
       <r>   -15.2520     0.0000    54.0000 </r>
       <r>   -15.1555    24.8876    56.4001 </r>
       <r>   -15.0591    15.3063    57.9428 </r>
       <r>   -14.9627    13.3828    59.5576 </r>
       <r>   -14.8662    20.3956    61.5670 </r>
       <r>   -14.7698    26.1722    64.2910 </r>
       <r>   -14.6733    32.2904    67.9983 </r>
       <r>   -14.5769     0.0000    68.0000 </r>
       <r>   -14.4805     0.0000    68.0000 </r>
       <r>   -14.3840     3.0588    68.2950 </r>
       <r>   -14.2876     6.3110    68.9588 </r>
       <r>   -14.1912    12.0428    70.5951 </r>
       <r>   -14.0947     6.6251    71.6238 </r>
       <r>   -13.9983     1.9832    71.8579 </r>
       <r>   -13.9018    23.1121    74.1289 </r>
       <r>   -13.8054     2.7234    74.4294 </r>
       <r>   -13.7090    23.4711    76.7636 </r>
       <r>   -13.6125     5.5276    78.0000 </r>
       <r>   -13.5161     0.0000    78.0000 </r>
       <r>   -13.4196     0.0000    78.0000 </r>
       <r>   -13.3232     0.0000    78.0000 </r>
       <r>   -13.2268     0.0000    78.0000 </r>
       <r>   -13.1303     0.0000    78.0000 </r>
       <r>   -13.0339     0.0000    78.0000 </r>
       <r>   -12.9375     0.0000    78.0000 </r>
       <r>   -12.8410     0.0220    78.0021 </r>
       <r>   -12.7446    41.4552    82.0000 </r>
       <r>   -12.6481     0.0000    82.0000 </r>
       <r>   -12.5517     0.0000    82.0000 </r>
       <r>   -12.4553    23.8960    84.3045 </r>
       <r>   -12.3588     4.8055    84.8301 </r>
       <r>   -12.2624     9.3354    86.1506 </r>
       <r>   -12.1659    11.6918    87.4277 </r>
       <r>   -12.0695     1.7918    87.6397 </r>
       <r>   -11.9731     1.5569    87.8168 </r>
       <r>   -11.8766    20.6587    89.8424 </r>
       <r>   -11.7802     0.0000    90.0000 </r>
       <r>   -11.6837     1.7818    90.1718 </r>
       <r>   -11.5873    38.7208    93.9675 </r>
       <r>   -11.4909    23.4753    96.2654 </r>
       <r>   -11.3944     3.6384    96.7009 </r>
       <r>   -11.2980     9.8893    98.0709 </r>
       <r>   -11.2016    12.6224    99.4675 </r>
       <r>   -11.1051    14.2453   100.9072 </r>
       <r>   -11.0087     0.0000   102.0000 </r>
       <r>   -10.9122     4.6015   102.4438 </r>
       <r>   -10.8158    22.6055   104.6968 </r>
       <r>   -10.7194    63.4992   111.5572 </r>
       <r>   -10.6229     3.5431   111.9918 </r>
       <r>   -10.5265     4.4453   112.4287 </r>
       <r>   -10.4300    53.7589   119.5681 </r>
       <r>   -10.3336     2.4828   120.0064 </r>
       <r>   -10.2372    17.4052   121.8122 </r>
       <r>   -10.1407    38.6397   126.1126 </r>
       <r>   -10.0443     8.4203   127.1455 </r>
       <r>    -9.9479    46.4197   132.0940 </r>
       <r>    -9.8514    25.9117   135.3004 </r>
       <r>    -9.7550     2.0182   135.6615 </r>
       <r>    -9.6585     1.4337   135.8383 </r>
       <r>    -9.5621    21.5902   137.9488 </r>
       <r>    -9.4657     1.5377   138.2150 </r>
       <r>    -9.3692     3.9324   138.6127 </r>
       <r>    -9.2728    33.0540   141.9878 </r>
       <r>    -9.1763    27.8490   144.6857 </r>
       <r>    -9.0799    26.5842   148.0000 </r>
       <r>    -8.9835     0.0000   148.0000 </r>
       <r>    -8.8870     0.0000   148.0000 </r>
       <r>    -8.7906     0.0000   148.0000 </r>
       <r>    -8.6941    29.3336   150.8289 </r>
       <r>    -8.5977    11.3821   154.0000 </r>
       <r>    -8.5013     0.0000   154.0000 </r>
       <r>    -8.4048     0.0000   154.0000 </r>
       <r>    -8.3084     0.2099   154.0202 </r>
       <r>    -8.2120    24.5465   156.6008 </r>
       <r>    -8.1155    29.2671   160.2894 </r>
       <r>    -8.0191    15.4416   161.8560 </r>
       <r>    -7.9226    76.6588   169.6280 </r>
       <r>    -7.8262     3.1078   170.0000 </r>
       <r>    -7.7298    24.3964   172.3528 </r>
       <r>    -7.6333    51.9901   178.0000 </r>
       <r>    -7.5369     0.0000   178.0000 </r>
       <r>    -7.4404     0.0000   178.0000 </r>
       <r>    -7.3440     0.0000   178.0000 </r>
       <r>    -7.2476     0.0000   178.0000 </r>
       <r>    -7.1511     0.0000   178.0000 </r>
       <r>    -7.0547     0.0000   178.0000 </r>
       <r>    -6.9583     0.0000   178.0000 </r>
       <r>    -6.8618     0.0000   178.0000 </r>
       <r>    -6.7654     0.0000   178.0000 </r>
       <r>    -6.6689     0.0000   178.0000 </r>
       <r>    -6.5725     0.0000   178.0000 </r>
       <r>    -6.4761     0.0000   178.0000 </r>
       <r>    -6.3796     0.0000   178.0000 </r>
       <r>    -6.2832     0.0000   178.0000 </r>
       <r>    -6.1867     5.3353   178.5145 </r>
       <r>    -6.0903    20.7378   184.0000 </r>
       <r>    -5.9939    54.6256   189.2680 </r>
       <r>    -5.8974     0.0000   190.0000 </r>
       <r>    -5.8010     0.0000   190.0000 </r>
       <r>    -5.7045     0.0000   190.0000 </r>
       <r>    -5.6081     0.0000   190.0000 </r>
       <r>    -5.5117     0.0000   190.0000 </r>
       <r>    -5.4152    48.3244   194.6603 </r>
       <r>    -5.3188    24.3554   198.0000 </r>
       <r>    -5.2224     1.0977   198.1059 </r>
       <r>    -5.1259    36.6273   202.0000 </r>
       <r>    -5.0295     0.0950   202.0092 </r>
       <r>    -4.9330    82.8593   210.0000 </r>
       <r>    -4.8366     0.0000   210.0000 </r>
       <r>    -4.7402     0.0000   210.0000 </r>
       <r>    -4.6437     0.0000   210.0000 </r>
       <r>    -4.5473     0.0000   210.0000 </r>
       <r>    -4.4508     0.0000   210.0000 </r>
       <r>    -4.3544     0.0000   210.0000 </r>
       <r>    -4.2580     0.0000   210.0000 </r>
       <r>    -4.1615     0.0000   210.0000 </r>
       <r>    -4.0651     0.0000   210.0000 </r>
       <r>    -3.9687     0.0000   210.0000 </r>
       <r>    -3.8722     0.0000   210.0000 </r>
       <r>    -3.7758     0.0000   210.0000 </r>
       <r>    -3.6793     0.0000   210.0000 </r>
       <r>    -3.5829     0.0000   210.0000 </r>
       <r>    -3.4865     0.0000   210.0000 </r>
       <r>    -3.3900     0.0000   210.0000 </r>
       <r>    -3.2936     0.0000   210.0000 </r>
       <r>    -3.1971     0.0000   210.0000 </r>
       <r>    -3.1007     0.0000   210.0000 </r>
       <r>    -3.0043     0.0000   210.0000 </r>
       <r>    -2.9078     0.0000   210.0000 </r>
       <r>    -2.8114     0.0000   210.0000 </r>
       <r>    -2.7149     0.0000   210.0000 </r>
       <r>    -2.6185     0.0000   210.0000 </r>
       <r>    -2.5221     0.0000   210.0000 </r>
       <r>    -2.4256     0.0000   210.0000 </r>
       <r>    -2.3292     0.0000   210.0000 </r>
       <r>    -2.2328     0.0000   210.0000 </r>
       <r>    -2.1363     0.0000   210.0000 </r>
       <r>    -2.0399     0.0000   210.0000 </r>
       <r>    -1.9434     0.0000   210.0000 </r>
       <r>    -1.8470     0.0000   210.0000 </r>
       <r>    -1.7506     0.0000   210.0000 </r>
       <r>    -1.6541     0.0000   210.0000 </r>
       <r>    -1.5577     0.0000   210.0000 </r>
       <r>    -1.4612     0.0000   210.0000 </r>
       <r>    -1.3648     0.0000   210.0000 </r>
       <r>    -1.2684     0.1442   210.0139 </r>
       <r>    -1.1719    55.9381   216.0000 </r>
       <r>    -1.0755     0.0000   216.0000 </r>
       <r>    -0.9791    62.2063   221.9991 </r>
       <r>    -0.8826     0.0000   222.0000 </r>
       <r>    -0.7862     0.0000   222.0000 </r>
       <r>    -0.6897     0.0000   222.0000 </r>
       <r>    -0.5933     0.0000   222.0000 </r>
       <r>    -0.4969     0.0000   222.0000 </r>
       <r>    -0.4004     0.0000   222.0000 </r>
       <r>    -0.3040     0.1103   222.0106 </r>
       <r>    -0.2075    63.4635   228.3207 </r>
       <r>    -0.1111    39.0675   233.6697 </r>
       <r>    -0.0147    23.0643   235.9576 </r>
       <r>     0.0818     2.7300   236.2633 </r>
       <r>     0.1782    36.0458   239.9278 </r>
       <r>     0.2746    26.7986   243.2845 </r>
       <r>     0.3711    28.9043   246.6051 </r>
       <r>     0.4675    31.0200   250.2102 </r>
       <r>     0.5640    22.0917   252.8975 </r>
       <r>     0.6604    41.3131   257.4537 </r>
       <r>     0.7568    30.0827   261.3017 </r>
       <r>     0.8533    53.2406   266.6347 </r>
       <r>     0.9497    54.9365   273.2003 </r>
       <r>     1.0462    50.2537   278.6306 </r>
       <r>     1.1426    46.7149   283.9408 </r>
       <r>     1.2390    22.5691   287.4952 </r>
       <r>     1.3355     3.4536   288.0000 </r>
       <r>     1.4319     0.0000   288.0000 </r>
       <r>     1.5284     0.0000   288.0000 </r>
       <r>     1.6248     0.0000   288.0000 </r>
       <r>     1.7212     0.0000   288.0000 </r>
       <r>     1.8177     0.0000   288.0000 </r>
       <r>     1.9141     0.0000   288.0000 </r>
       <r>     2.0105     0.0000   288.0000 </r>
       <r>     2.1070     0.0000   288.0000 </r>
       <r>     2.2034     0.0000   288.0000 </r>
       <r>     2.2999     0.0000   288.0000 </r>
       <r>     2.3963     0.0000   288.0000 </r>
       <r>     2.4927     0.0000   288.0000 </r>
       <r>     2.5892     0.0000   288.0000 </r>
      </set>
     </set>
    </array>
   </total>
  </dos>
 </calculation>
 <structure name="finalpos" >
  <crystal>
   <varray name="basis" >
    <v>      21.84483528       0.04429734       0.00000000 </v>
    <v>     -10.88416156      19.01180599       0.00000000 </v>
    <v>       0.00000000       0.00000000      20.00000000 </v>
   </varray>
   <i name="volume">   8315.83819635 </i>
   <varray name="rec_basis" >
    <v>       0.04572433       0.02617694       0.00000000 </v>
    <v>      -0.00010654       0.05253790       0.00000000 </v>
    <v>       0.00000000       0.00000000       0.05000000 </v>
   </varray>
  </crystal>
  <varray name="positions" >
   <v>       0.46539778       0.82760567       0.49977751 </v>
   <v>       0.36154096       0.53779654       0.50265242 </v>
   <v>       0.17503314       0.64256022       0.50452889 </v>
   <v>       0.53531961       0.17606785       0.49974941 </v>
   <v>       0.64002535       0.46573479       0.49922452 </v>
   <v>       0.82594239       0.36006932       0.49888813 </v>
   <v>       0.07782608       0.55151512       0.40225056 </v>
   <v>       0.95295941       0.52362413       0.39768812 </v>
   <v>       0.15868588       0.51724632       0.55546581 </v>
   <v>       0.15885372       0.50567971       0.46821899 </v>
   <v>       0.45241205       0.52896255       0.39925749 </v>
   <v>       0.47780070       0.43027245       0.39723219 </v>
   <v>       0.48964018       0.64749447       0.54967630 </v>
   <v>       0.49766933       0.65482866       0.46185542 </v>
   <v>       0.47215444       0.92679702       0.39868202 </v>
   <v>       0.57050962       0.05013993       0.39658299 </v>
   <v>       0.35530418       0.84507734       0.55009114 </v>
   <v>       0.34654854       0.84634061       0.46248173 </v>
   <v>       0.04831191       0.47852810       0.60577779 </v>
   <v>       0.92345525       0.45064501       0.60122903 </v>
   <v>       0.84285384       0.49707105       0.53559781 </v>
   <v>       0.84290253       0.48583874       0.44829371 </v>
   <v>       0.52369178       0.57313130       0.60330388 </v>
   <v>       0.54901996       0.47438118       0.60129217 </v>
   <v>       0.50328321       0.34821366       0.53826529 </v>
   <v>       0.51276680       0.35641702       0.45060792 </v>
   <v>       0.42943473       0.95291491       0.60358862 </v>
   <v>       0.52773453       0.07628233       0.60147269 </v>
   <v>       0.65371877       0.15646827       0.53755313 </v>
   <v>       0.64470944       0.15776421       0.44998099 </v>
   <v>       0.26556655       0.63941330       0.49630795 </v>
   <v>       0.37205534       0.73756143       0.49457196 </v>
   <v>       0.36438314       0.63107604       0.49517477 </v>
   <v>       0.73554042       0.36354149       0.50636411 </v>
   <v>       0.62882905       0.26565745       0.50654726 </v>
   <v>       0.63692398       0.37230415       0.50645449 </v>
   <v>       0.07162199       0.51676686       0.50432674 </v>
   <v>       0.04400300       0.52941278       0.44603750 </v>
   <v>       0.97390963       0.51387625       0.44355077 </v>
   <v>       0.14759693       0.53429204       0.50723340 </v>
   <v>       0.48652231       0.55800857       0.50140837 </v>
   <v>       0.47355869       0.51700470       0.44373581 </v>
   <v>       0.48769869       0.46148027       0.44265384 </v>
   <v>       0.47024742       0.61737619       0.50278228 </v>
   <v>       0.44387081       0.93139886       0.50128644 </v>
   <v>       0.48433933       0.95952570       0.44332783 </v>
   <v>       0.53966630       0.02877999       0.44219885 </v>
   <v>       0.38483620       0.85616742       0.50273345 </v>
   <v>       0.95726487       0.47273890       0.55742827 </v>
   <v>       0.02736716       0.48829709       0.55992037 </v>
   <v>       0.92968515       0.48551898       0.49918203 </v>
   <v>       0.85383968       0.46843857       0.49639538 </v>
   <v>       0.52783050       0.48632431       0.55683531 </v>
   <v>       0.51371984       0.54186174       0.55790927 </v>
   <v>       0.51491752       0.44535939       0.49914604 </v>
   <v>       0.53133389       0.38610643       0.49781265 </v>
   <v>       0.51559787       0.04354768       0.55683875 </v>
   <v>       0.46027900       0.97428328       0.55797365 </v>
   <v>       0.55611665       0.07165828       0.49889540 </v>
   <v>       0.61534696       0.14681538       0.49744248 </v>
   <v>       0.30194172       0.71060642       0.49579742 </v>
   <v>       0.40709827       0.70094076       0.49408156 </v>
   <v>       0.29295801       0.59650053       0.49630588 </v>
   <v>       0.41293816       0.80869364       0.49413626 </v>
   <v>       0.39473797       0.58984848       0.49556596 </v>
   <v>       0.19415736       0.60930992       0.49721605 </v>
   <v>       0.69893817       0.29234803       0.50642628 </v>
   <v>       0.59397716       0.30248386       0.50652112 </v>
   <v>       0.70832540       0.40660353       0.50622361 </v>
   <v>       0.58760602       0.19455956       0.50631559 </v>
   <v>       0.60672781       0.41368277       0.50620110 </v>
   <v>       0.80695050       0.39344502       0.50609235 </v>
  </varray>
 </structure>
</modeling>
