<?xml version="1.0" encoding="ISO-8859-1"?>
<modeling>
 <generator>
  <i name="program" type="string">vasp </i>
  <i name="version" type="string">5.4.4.18Apr17-6-g9f103f2a35  </i>
  <i name="subversion" type="string">(build Jun 07 2020 16:50:00) complex            parallel </i>
  <i name="platform" type="string">LinuxIFC </i>
  <i name="date" type="string">2023 02 19 </i>
  <i name="time" type="string">11:41:36 </i>
 </generator>
 <incar>
  <i type="string" name="SYSTEM">Simulation for cell shape cell volume r</i>
  <i type="int" name="ISTART">     1</i>
  <i type="string" name="PREC">high</i>
  <i type="string" name="ALGO">48</i>
  <i type="int" name="ICHARG">    11</i>
  <i type="int" name="NELM">   200</i>
  <i type="int" name="IBRION">    -1</i>
  <i name="EDIFF">      0.00001000</i>
  <i name="EDIFFG">     -0.01000000</i>
  <i type="int" name="NSW">     0</i>
  <i type="int" name="ISIF">     2</i>
  <i name="ENCUT">    500.00000000</i>
  <i name="POTIM">      0.30000000</i>
  <i type="string" name="LREAL">A</i>
  <i type="int" name="ISMEAR">     0</i>
  <i name="SIGMA">      0.01000000</i>
  <i type="int" name="NWRITE">     0</i>
  <i type="logical" name="LWAVE"> F  </i>
  <i type="logical" name="LCHARG"> F  </i>
  <v type="int" name="KPOINT_BSE">    -1     0     0     0</v>
  <i type="int" name="NELM">   200</i>
  <i type="string" name="GGA">PE</i>
 </incar>
 <structure name="primitive_cell" >
  <crystal>
   <varray name="basis" >
    <v>      22.42272823       0.00000000       0.00000000 </v>
    <v>     -11.21136411      19.41865226       0.00000000 </v>
    <v>       0.00000000       0.00000000      20.00000000 </v>
   </varray>
   <i name="volume">   8708.38324529 </i>
   <varray name="rec_basis" >
    <v>       0.04459761       0.02574844       0.00000000 </v>
    <v>      -0.00000000       0.05149688       0.00000000 </v>
    <v>       0.00000000       0.00000000       0.05000000 </v>
   </varray>
  </crystal>
  <varray name="positions" >
   <v>       0.48080823      -0.47971411       0.49487063 </v>
   <v>      -0.49898607      -0.42296113      -0.46284784 </v>
   <v>       0.42416271       0.49986358       0.45237781 </v>
   <v>      -0.48095888       0.48221128       0.49479557 </v>
   <v>       0.40801937       0.45560788       0.41942267 </v>
   <v>      -0.45480090      -0.40660125      -0.42974924 </v>
   <v>       0.46537915      -0.38692974      -0.46353906 </v>
   <v>       0.38803164      -0.46460976       0.45262840 </v>
   <v>      -0.44380396       0.48039066       0.43903495 </v>
   <v>      -0.47892725       0.44476539      -0.44979441 </v>
   <v>       0.40816325      -0.40730270       0.49444471 </v>
   <v>       0.42053218       0.42296380      -0.39528426 </v>
   <v>      -0.42136177      -0.41848705       0.38545915 </v>
   <v>      -0.43919819      -0.47988476       0.37812968 </v>
   <v>       0.48179739       0.44007862      -0.38846920 </v>
   <v>       0.48132743      -0.34301874      -0.43018173 </v>
   <v>       0.34424840      -0.48069378       0.41906725 </v>
   <v>      -0.40851855       0.44401304       0.43726171 </v>
   <v>      -0.44274974       0.40924919      -0.44883032 </v>
   <v>      -0.45225014       0.48867743       0.32426816 </v>
   <v>      -0.48652685       0.45242122      -0.33481498 </v>
   <v>       0.36987433      -0.36939547       0.49431328 </v>
   <v>      -0.40733662       0.40815824       0.49400972 </v>
   <v>      -0.38218130       0.44394918       0.39149138 </v>
   <v>      -0.44251030       0.38258211      -0.40336867 </v>
   <v>       0.26973879      -0.46136294       0.49431744 </v>
   <v>       0.46136294      -0.26889828       0.49431744 </v>
   <v>       0.29765190      -0.40516166       0.49430429 </v>
   <v>       0.40516166      -0.29718644       0.49430429 </v>
   <v>      -0.36927738       0.36969325       0.49365733 </v>
   <v>      -0.46147893       0.26962575       0.49367059 </v>
   <v>      -0.26889532       0.46147893       0.49367059 </v>
   <v>       0.26073020      -0.36987433       0.49431328 </v>
   <v>       0.36939547      -0.26073020       0.49431328 </v>
   <v>      -0.40527795       0.29756818       0.49362393 </v>
   <v>      -0.29715387       0.40527795       0.49362393 </v>
   <v>       0.17565384      -0.48132743      -0.43018173 </v>
   <v>       0.48069378      -0.17505782       0.41906725 </v>
   <v>       0.29718644      -0.29765190       0.49430429 </v>
   <v>       0.18453405      -0.40816325       0.49444471 </v>
   <v>       0.40730270      -0.18453405       0.49444471 </v>
   <v>       0.14769110      -0.46537915      -0.46353906 </v>
   <v>       0.46460976      -0.14735860       0.45262840 </v>
   <v>      -0.36969325       0.26102937       0.49365733 </v>
   <v>      -0.26102937       0.36927738       0.49365733 </v>
   <v>       0.26889828      -0.26973879       0.49431744 </v>
   <v>      -0.29756818       0.29715387       0.49362393 </v>
   <v>       0.14735860      -0.38803164       0.45262840 </v>
   <v>       0.38692974      -0.14769110      -0.46353906 </v>
   <v>       0.07602493       0.49898607      -0.46284784 </v>
   <v>      -0.49986358      -0.07570088       0.45237781 </v>
   <v>       0.34301874      -0.17565384      -0.43018173 </v>
   <v>       0.17505782      -0.34424840       0.41906725 </v>
   <v>      -0.17490760       0.44251030      -0.40336867 </v>
   <v>      -0.44394918       0.17386952       0.39149138 </v>
   <v>      -0.40815824       0.18450515       0.49400972 </v>
   <v>      -0.18450515       0.40733662       0.49400972 </v>
   <v>       0.04819965       0.45480090      -0.42974924 </v>
   <v>      -0.45560788      -0.04758851       0.41942267 </v>
   <v>      -0.14800108       0.44274974      -0.44883032 </v>
   <v>      -0.44401304       0.14746842       0.43726171 </v>
   <v>      -0.26962575       0.26889532       0.49367059 </v>
   <v>       0.42296113      -0.07602493      -0.46284784 </v>
   <v>       0.07570088      -0.42416271       0.45237781 </v>
   <v>      -0.38258211       0.17490760      -0.40336867 </v>
   <v>      -0.40924919       0.14800108      -0.44883032 </v>
   <v>       0.47971411      -0.03947766       0.49487063 </v>
   <v>       0.03947766      -0.48080823       0.49487063 </v>
   <v>      -0.17386952       0.38218130       0.39149138 </v>
   <v>      -0.14746842       0.40851855       0.43726171 </v>
   <v>       0.00287472       0.42136177       0.38545915 </v>
   <v>      -0.42296380      -0.00243161      -0.39528426 </v>
   <v>      -0.07630736       0.47892725      -0.44979441 </v>
   <v>      -0.48039066       0.07580538       0.43903495 </v>
   <v>       0.40660125      -0.04819965      -0.42974924 </v>
   <v>       0.04758851      -0.40801937       0.41942267 </v>
   <v>      -0.44476539       0.07630736      -0.44979441 </v>
   <v>      -0.07580538       0.44380396       0.43903495 </v>
   <v>      -0.04171877      -0.48179739      -0.38846920 </v>
   <v>       0.47988476       0.04068656       0.37812968 </v>
   <v>      -0.04068656       0.43919819       0.37812968 </v>
   <v>      -0.44007862       0.04171877      -0.38846920 </v>
   <v>      -0.48221128       0.03682984       0.49479557 </v>
   <v>      -0.03682984       0.48095888       0.49479557 </v>
   <v>      -0.06105193       0.48652685      -0.33481498 </v>
   <v>      -0.48867743       0.05907243       0.32426816 </v>
   <v>       0.00243161      -0.42053218      -0.39528426 </v>
   <v>       0.41848705      -0.00287472       0.38545915 </v>
   <v>      -0.45242122       0.06105193      -0.33481498 </v>
   <v>      -0.05907243       0.45225014       0.32426816 </v>
  </varray>
 </structure>
 <varray name="primitive_index" >
  <v type="int" >        1 </v>
  <v type="int" >        5 </v>
  <v type="int" >        2 </v>
  <v type="int" >       33 </v>
  <v type="int" >       49 </v>
  <v type="int" >       50 </v>
  <v type="int" >        4 </v>
  <v type="int" >        3 </v>
  <v type="int" >       36 </v>
  <v type="int" >       47 </v>
  <v type="int" >        6 </v>
  <v type="int" >       84 </v>
  <v type="int" >       77 </v>
  <v type="int" >       87 </v>
  <v type="int" >       90 </v>
  <v type="int" >       52 </v>
  <v type="int" >       51 </v>
  <v type="int" >       35 </v>
  <v type="int" >       48 </v>
  <v type="int" >       78 </v>
  <v type="int" >       83 </v>
  <v type="int" >        7 </v>
  <v type="int" >       34 </v>
  <v type="int" >       65 </v>
  <v type="int" >       72 </v>
  <v type="int" >       53 </v>
  <v type="int" >       54 </v>
  <v type="int" >        9 </v>
  <v type="int" >        8 </v>
  <v type="int" >       13 </v>
  <v type="int" >       58 </v>
  <v type="int" >       57 </v>
  <v type="int" >       12 </v>
  <v type="int" >       10 </v>
  <v type="int" >       14 </v>
  <v type="int" >       18 </v>
  <v type="int" >       67 </v>
  <v type="int" >       63 </v>
  <v type="int" >       11 </v>
  <v type="int" >       37 </v>
  <v type="int" >       42 </v>
  <v type="int" >       38 </v>
  <v type="int" >       28 </v>
  <v type="int" >       15 </v>
  <v type="int" >       17 </v>
  <v type="int" >       55 </v>
  <v type="int" >       16 </v>
  <v type="int" >       21 </v>
  <v type="int" >       43 </v>
  <v type="int" >       39 </v>
  <v type="int" >       27 </v>
  <v type="int" >       70 </v>
  <v type="int" >       60 </v>
  <v type="int" >       66 </v>
  <v type="int" >       64 </v>
  <v type="int" >       30 </v>
  <v type="int" >       23 </v>
  <v type="int" >       68 </v>
  <v type="int" >       62 </v>
  <v type="int" >       41 </v>
  <v type="int" >       31 </v>
  <v type="int" >       56 </v>
  <v type="int" >       44 </v>
  <v type="int" >       20 </v>
  <v type="int" >       69 </v>
  <v type="int" >       46 </v>
  <v type="int" >       26 </v>
  <v type="int" >       19 </v>
  <v type="int" >       61 </v>
  <v type="int" >       24 </v>
  <v type="int" >       73 </v>
  <v type="int" >       82 </v>
  <v type="int" >       40 </v>
  <v type="int" >       32 </v>
  <v type="int" >       71 </v>
  <v type="int" >       59 </v>
  <v type="int" >       45 </v>
  <v type="int" >       25 </v>
  <v type="int" >       88 </v>
  <v type="int" >       86 </v>
  <v type="int" >       85 </v>
  <v type="int" >       89 </v>
  <v type="int" >       29 </v>
  <v type="int" >       22 </v>
  <v type="int" >       79 </v>
  <v type="int" >       76 </v>
  <v type="int" >       80 </v>
  <v type="int" >       75 </v>
  <v type="int" >       81 </v>
  <v type="int" >       74 </v>
 </varray>
 <kpoints>
  <generation param="listgenerated">
   <i name="divisions" type="int">      20 </i>
   <v>       0.00000000       0.00000000       0.00000000 </v>
   <v>       0.50000000       0.00000000       0.00000000 </v>
   <v>       0.33333333       0.33333333       0.00000000 </v>
   <v>       0.00000000       0.00000000       0.00000000 </v>
  </generation>
  <varray name="kpointlist" >
   <v>       0.00000000       0.00000000       0.00000000 </v>
   <v>       0.02631579       0.00000000       0.00000000 </v>
   <v>       0.05263158       0.00000000       0.00000000 </v>
   <v>       0.07894737       0.00000000       0.00000000 </v>
   <v>       0.10526316       0.00000000       0.00000000 </v>
   <v>       0.13157895       0.00000000       0.00000000 </v>
   <v>       0.15789474       0.00000000       0.00000000 </v>
   <v>       0.18421053       0.00000000       0.00000000 </v>
   <v>       0.21052632       0.00000000       0.00000000 </v>
   <v>       0.23684211       0.00000000       0.00000000 </v>
   <v>       0.26315789       0.00000000       0.00000000 </v>
   <v>       0.28947368       0.00000000       0.00000000 </v>
   <v>       0.31578947       0.00000000       0.00000000 </v>
   <v>       0.34210526       0.00000000       0.00000000 </v>
   <v>       0.36842105       0.00000000       0.00000000 </v>
   <v>       0.39473684       0.00000000       0.00000000 </v>
   <v>       0.42105263       0.00000000       0.00000000 </v>
   <v>       0.44736842       0.00000000       0.00000000 </v>
   <v>       0.47368421       0.00000000       0.00000000 </v>
   <v>       0.50000000       0.00000000       0.00000000 </v>
   <v>       0.50000000       0.00000000       0.00000000 </v>
   <v>       0.49122807       0.01754386       0.00000000 </v>
   <v>       0.48245614       0.03508772       0.00000000 </v>
   <v>       0.47368421       0.05263158       0.00000000 </v>
   <v>       0.46491228       0.07017544       0.00000000 </v>
   <v>       0.45614035       0.08771930       0.00000000 </v>
   <v>       0.44736842       0.10526316       0.00000000 </v>
   <v>       0.43859649       0.12280702       0.00000000 </v>
   <v>       0.42982456       0.14035088       0.00000000 </v>
   <v>       0.42105263       0.15789474       0.00000000 </v>
   <v>       0.41228070       0.17543860       0.00000000 </v>
   <v>       0.40350877       0.19298246       0.00000000 </v>
   <v>       0.39473684       0.21052632       0.00000000 </v>
   <v>       0.38596491       0.22807018       0.00000000 </v>
   <v>       0.37719298       0.24561404       0.00000000 </v>
   <v>       0.36842105       0.26315789       0.00000000 </v>
   <v>       0.35964912       0.28070175       0.00000000 </v>
   <v>       0.35087719       0.29824561       0.00000000 </v>
   <v>       0.34210526       0.31578947       0.00000000 </v>
   <v>       0.33333333       0.33333333       0.00000000 </v>
   <v>       0.33333333       0.33333333       0.00000000 </v>
   <v>       0.31578947       0.31578947       0.00000000 </v>
   <v>       0.29824561       0.29824561       0.00000000 </v>
   <v>       0.28070175       0.28070175       0.00000000 </v>
   <v>       0.26315789       0.26315789       0.00000000 </v>
   <v>       0.24561404       0.24561404       0.00000000 </v>
   <v>       0.22807018       0.22807018       0.00000000 </v>
   <v>       0.21052632       0.21052632       0.00000000 </v>
   <v>       0.19298246       0.19298246       0.00000000 </v>
   <v>       0.17543860       0.17543860       0.00000000 </v>
   <v>       0.15789474       0.15789474       0.00000000 </v>
   <v>       0.14035088       0.14035088       0.00000000 </v>
   <v>       0.12280702       0.12280702       0.00000000 </v>
   <v>       0.10526316       0.10526316       0.00000000 </v>
   <v>       0.08771930       0.08771930       0.00000000 </v>
   <v>       0.07017544       0.07017544       0.00000000 </v>
   <v>       0.05263158       0.05263158       0.00000000 </v>
   <v>       0.03508772       0.03508772       0.00000000 </v>
   <v>       0.01754386       0.01754386       0.00000000 </v>
   <v>       0.00000000       0.00000000       0.00000000 </v>
  </varray>
  <varray name="weights" >
   <v>       0.01666667 </v>
   <v>       0.01666667 </v>
   <v>       0.01666667 </v>
   <v>       0.01666667 </v>
   <v>       0.01666667 </v>
   <v>       0.01666667 </v>
   <v>       0.01666667 </v>
   <v>       0.01666667 </v>
   <v>       0.01666667 </v>
   <v>       0.01666667 </v>
   <v>       0.01666667 </v>
   <v>       0.01666667 </v>
   <v>       0.01666667 </v>
   <v>       0.01666667 </v>
   <v>       0.01666667 </v>
   <v>       0.01666667 </v>
   <v>       0.01666667 </v>
   <v>       0.01666667 </v>
   <v>       0.01666667 </v>
   <v>       0.01666667 </v>
   <v>       0.01666667 </v>
   <v>       0.01666667 </v>
   <v>       0.01666667 </v>
   <v>       0.01666667 </v>
   <v>       0.01666667 </v>
   <v>       0.01666667 </v>
   <v>       0.01666667 </v>
   <v>       0.01666667 </v>
   <v>       0.01666667 </v>
   <v>       0.01666667 </v>
   <v>       0.01666667 </v>
   <v>       0.01666667 </v>
   <v>       0.01666667 </v>
   <v>       0.01666667 </v>
   <v>       0.01666667 </v>
   <v>       0.01666667 </v>
   <v>       0.01666667 </v>
   <v>       0.01666667 </v>
   <v>       0.01666667 </v>
   <v>       0.01666667 </v>
   <v>       0.01666667 </v>
   <v>       0.01666667 </v>
   <v>       0.01666667 </v>
   <v>       0.01666667 </v>
   <v>       0.01666667 </v>
   <v>       0.01666667 </v>
   <v>       0.01666667 </v>
   <v>       0.01666667 </v>
   <v>       0.01666667 </v>
   <v>       0.01666667 </v>
   <v>       0.01666667 </v>
   <v>       0.01666667 </v>
   <v>       0.01666667 </v>
   <v>       0.01666667 </v>
   <v>       0.01666667 </v>
   <v>       0.01666667 </v>
   <v>       0.01666667 </v>
   <v>       0.01666667 </v>
   <v>       0.01666667 </v>
   <v>       0.01666667 </v>
  </varray>
 </kpoints>
 <parameters>
  <separator name="general" >
   <i type="string" name="SYSTEM">Simulation for cell shape cell volume r</i>
   <i type="logical" name="LCOMPAT"> F  </i>
  </separator>
  <separator name="electronic" >
   <i type="string" name="PREC">high</i>
   <i name="ENMAX">    500.00000000</i>
   <i name="ENAUG">    644.87300000</i>
   <i name="EDIFF">      0.00001000</i>
   <i type="int" name="IALGO">    38</i>
   <i type="int" name="IWAVPR">    10</i>
   <i type="int" name="NBANDS">   208</i>
   <i name="NELECT">    318.00000000</i>
   <i type="int" name="TURBO">     0</i>
   <i type="int" name="IRESTART">     0</i>
   <i type="int" name="NREBOOT">     0</i>
   <i type="int" name="NMIN">     0</i>
   <i name="EREF">      0.00000000</i>
   <separator name="electronic smearing" >
    <i type="int" name="ISMEAR">     0</i>
    <i name="SIGMA">      0.01000000</i>
    <i name="KSPACING">      0.50000000</i>
    <i type="logical" name="KGAMMA"> T  </i>
   </separator>
   <separator name="electronic projectors" >
    <i type="logical" name="LREAL"> T  </i>
    <v name="ROPT">     -0.00040000     -0.00040000     -0.00040000     -0.00040000</v>
    <i type="int" name="LMAXPAW">  -100</i>
    <i type="int" name="LMAXMIX">     2</i>
    <i type="logical" name="NLSPLINE"> F  </i>
   </separator>
   <separator name="electronic startup" >
    <i type="int" name="ISTART">     1</i>
    <i type="int" name="ICHARG">    11</i>
    <i type="int" name="INIWAV">     1</i>
   </separator>
   <separator name="electronic spin" >
    <i type="int" name="ISPIN">     1</i>
    <i type="logical" name="LNONCOLLINEAR"> F  </i>
    <v name="MAGMOM">      1.00000000      1.00000000      1.00000000      1.00000000      1.00000000      1.00000000      1.00000000      1.00000000      1.00000000      1.00000000      1.00000000      1.00000000      1.00000000      1.00000000      1.00000000      1.00000000      1.00000000      1.00000000      1.00000000      1.00000000
      1.00000000      1.00000000      1.00000000      1.00000000      1.00000000      1.00000000      1.00000000      1.00000000      1.00000000      1.00000000      1.00000000      1.00000000      1.00000000      1.00000000      1.00000000      1.00000000      1.00000000      1.00000000      1.00000000      1.00000000
      1.00000000      1.00000000      1.00000000      1.00000000      1.00000000      1.00000000      1.00000000      1.00000000      1.00000000      1.00000000      1.00000000      1.00000000      1.00000000      1.00000000      1.00000000      1.00000000      1.00000000      1.00000000      1.00000000      1.00000000
      1.00000000      1.00000000      1.00000000      1.00000000      1.00000000      1.00000000      1.00000000      1.00000000      1.00000000      1.00000000      1.00000000      1.00000000      1.00000000      1.00000000      1.00000000      1.00000000      1.00000000      1.00000000      1.00000000      1.00000000
      1.00000000      1.00000000      1.00000000      1.00000000      1.00000000      1.00000000      1.00000000      1.00000000      1.00000000      1.00000000</v>
    <i name="NUPDOWN">     -1.00000000</i>
    <i type="logical" name="LSORBIT"> F  </i>
    <v name="SAXIS">      0.00000000      0.00000000      1.00000000</v>
    <i type="logical" name="LSPIRAL"> F  </i>
    <v name="QSPIRAL">      0.00000000      0.00000000      0.00000000</v>
    <i type="logical" name="LZEROZ"> F  </i>
   </separator>
   <separator name="electronic exchange-correlation" >
    <i type="logical" name="LASPH"> F  </i>
    <i type="logical" name="LMETAGGA"> F  </i>
   </separator>
   <separator name="electronic convergence" >
    <i type="int" name="NELM">   200</i>
    <i type="int" name="NELMDL">     0</i>
    <i type="int" name="NELMIN">     2</i>
    <i name="ENINI">    500.00000000</i>
    <separator name="electronic convergence detail" >
     <i type="logical" name="LDIAG"> T  </i>
     <i type="logical" name="LSUBROT"> F  </i>
     <i name="WEIMIN">      0.00000000</i>
     <i name="EBREAK">      0.00000001</i>
     <i name="DEPER">      0.30000000</i>
     <i type="int" name="NRMM">     4</i>
     <i name="TIME">      0.40000000</i>
    </separator>
   </separator>
   <separator name="electronic mixer" >
    <i name="AMIX">      0.40000000</i>
    <i name="BMIX">      1.00000000</i>
    <i name="AMIN">      0.10000000</i>
    <i name="AMIX_MAG">      1.60000000</i>
    <i name="BMIX_MAG">      1.00000000</i>
    <separator name="electronic mixer details" >
     <i type="int" name="IMIX">     4</i>
     <i type="logical" name="MIXFIRST"> F  </i>
     <i type="int" name="MAXMIX">   -45</i>
     <i name="WC">    100.00000000</i>
     <i type="int" name="INIMIX">     1</i>
     <i type="int" name="MIXPRE">     1</i>
     <i type="int" name="MREMOVE">     5</i>
    </separator>
   </separator>
   <separator name="electronic dipolcorrection" >
    <i type="logical" name="LDIPOL"> F  </i>
    <i type="logical" name="LMONO"> F  </i>
    <i type="int" name="IDIPOL">     0</i>
    <i name="EPSILON">      1.00000000</i>
    <v name="DIPOL">   -100.00000000   -100.00000000   -100.00000000</v>
    <i name="EFIELD">      0.00000000</i>
   </separator>
  </separator>
  <separator name="grids" >
   <i type="int" name="NGX">   168</i>
   <i type="int" name="NGY">   168</i>
   <i type="int" name="NGZ">   150</i>
   <i type="int" name="NGXF">   250</i>
   <i type="int" name="NGYF">   250</i>
   <i type="int" name="NGZF">   224</i>
   <i type="logical" name="ADDGRID"> F  </i>
  </separator>
  <separator name="ionic" >
   <i type="int" name="NSW">     0</i>
   <i type="int" name="IBRION">    -1</i>
   <i type="int" name="MDALGO">     0</i>
   <i type="int" name="ISIF">     2</i>
   <i name="PSTRESS">      0.00000000</i>
   <i name="EDIFFG">     -0.01000000</i>
   <i type="int" name="NFREE">     0</i>
   <i name="POTIM">      0.30000000</i>
   <i name="SMASS">     -3.00000000</i>
   <i name="SCALEE">      1.00000000</i>
  </separator>
  <separator name="ionic md" >
   <i name="TEBEG">      0.00010000</i>
   <i name="TEEND">      0.00010000</i>
   <i type="int" name="NBLOCK">     1</i>
   <i type="int" name="KBLOCK">     1</i>
   <i type="int" name="NPACO">   256</i>
   <i name="APACO">     16.00000000</i>
  </separator>
  <separator name="symmetry" >
   <i type="int" name="ISYM">     2</i>
   <i name="SYMPREC">      0.00001000</i>
  </separator>
  <separator name="dos" >
   <i type="int" name="LORBIT">     0</i>
   <v name="RWIGS">     -1.00000000     -1.00000000     -1.00000000     -1.00000000</v>
   <i type="int" name="NEDOS">   301</i>
   <i name="EMIN">     10.00000000</i>
   <i name="EMAX">    -10.00000000</i>
   <i name="EFERMI">      0.00000000</i>
  </separator>
  <separator name="writing" >
   <i type="int" name="NWRITE">     0</i>
   <i type="logical" name="LWAVE"> F  </i>
   <i type="logical" name="LDOWNSAMPLE"> F  </i>
   <i type="logical" name="LCHARG"> F  </i>
   <i type="logical" name="LPARD"> F  </i>
   <i type="logical" name="LVTOT"> F  </i>
   <i type="logical" name="LVHAR"> F  </i>
   <i type="logical" name="LELF"> F  </i>
   <i type="logical" name="LOPTICS"> F  </i>
   <v name="STM">      0.00000000      0.00000000      0.00000000      0.00000000      0.00000000      0.00000000      0.00000000</v>
  </separator>
  <separator name="performance" >
   <i type="int" name="NPAR">    16</i>
   <i type="int" name="NSIM">     4</i>
   <i type="int" name="NBLK">    -1</i>
   <i type="logical" name="LPLANE"> T  </i>
   <i type="logical" name="LSCALAPACK"> T  </i>
   <i type="logical" name="LSCAAWARE"> F  </i>
   <i type="logical" name="LSCALU"> F  </i>
   <i type="logical" name="LASYNC"> F  </i>
   <i type="logical" name="LORBITALREAL"> F  </i>
  </separator>
  <separator name="miscellaneous" >
   <i type="int" name="IDIOT">     3</i>
   <i type="int" name="ISPECIAL">     0</i>
   <i type="logical" name="LMUSIC"> F  </i>
   <v name="POMASS">     12.01100000      1.00000000     16.00000000     14.00100000</v>
   <v name="DARWINR">      0.00000000      0.00000000      0.00000000      0.00000000</v>
   <v name="DARWINV">      1.00000000      1.00000000      1.00000000      1.00000000</v>
   <i type="logical" name="LCORR"> T  </i>
  </separator>
  <i type="logical" name="GGA_COMPAT"> T  </i>
  <i type="logical" name="LBERRY"> F  </i>
  <i type="int" name="ICORELEVEL">     0</i>
  <i type="logical" name="LDAU"> F  </i>
  <i type="int" name="I_CONSTRAINED_M">     0</i>
  <separator name="electronic exchange-correlation" >
   <i type="string" name="GGA">PE</i>
   <i type="int" name="VOSKOWN">     0</i>
   <i type="logical" name="LHFCALC"> F  </i>
   <i type="string" name="PRECFOCK"></i>
   <i type="logical" name="LSYMGRAD"> F  </i>
   <i type="logical" name="LHFONE"> F  </i>
   <i type="logical" name="LRHFCALC"> F  </i>
   <i type="logical" name="LTHOMAS"> F  </i>
   <i type="logical" name="LMODELHF"> F  </i>
   <i name="ENCUT4O">     -1.00000000</i>
   <i type="int" name="EXXOEP">     0</i>
   <i type="int" name="FOURORBIT">     0</i>
   <i name="AEXX">      0.00000000</i>
   <i name="HFALPHA">      0.00000000</i>
   <i name="MCALPHA">      0.00000000</i>
   <i name="ALDAX">      1.00000000</i>
   <i name="AGGAX">      1.00000000</i>
   <i name="ALDAC">      1.00000000</i>
   <i name="AGGAC">      1.00000000</i>
   <i type="int" name="NKREDX">     1</i>
   <i type="int" name="NKREDY">     1</i>
   <i type="int" name="NKREDZ">     1</i>
   <i type="logical" name="SHIFTRED"> F  </i>
   <i type="logical" name="ODDONLY"> F  </i>
   <i type="logical" name="EVENONLY"> F  </i>
   <i type="int" name="LMAXFOCK">     0</i>
   <i type="int" name="NMAXFOCKAE">     0</i>
   <i type="logical" name="LFOCKAEDFT"> F  </i>
   <i name="HFSCREEN">      0.00000000</i>
   <i name="HFSCREENC">      0.00000000</i>
   <i type="int" name="NBANDSGWLOW">     0</i>
  </separator>
  <separator name="vdW DFT" >
   <i type="logical" name="LUSE_VDW"> F  </i>
   <i name="Zab_VDW">     -0.84910000</i>
   <i name="PARAM1">      0.12340000</i>
   <i name="PARAM2">      1.00000000</i>
   <i name="PARAM3">      0.00000000</i>
  </separator>
  <separator name="model GW" >
   <i type="int" name="MODEL_GW">     0</i>
   <i name="MODEL_EPS0">     58.05588830</i>
   <i name="MODEL_ALPHA">      1.00000000</i>
  </separator>
  <separator name="linear response parameters" >
   <i type="logical" name="LEPSILON"> F  </i>
   <i type="logical" name="LRPA"> F  </i>
   <i type="logical" name="LNABLA"> F  </i>
   <i type="logical" name="LVEL"> F  </i>
   <i type="int" name="KINTER">     0</i>
   <i name="CSHIFT">      0.10000000</i>
   <i name="OMEGAMAX">     -1.00000000</i>
   <i name="DEG_THRESHOLD">      0.00200000</i>
   <i name="RTIME">     -0.10000000</i>
   <i name="WPLASMAI">      0.00000000</i>
   <v name="DFIELD">      0.00000000      0.00000000      0.00000000</v>
   <v name="WPLASMA">      0.00000000      0.00000000      0.00000000      0.00000000      0.00000000      0.00000000      0.00000000      0.00000000      0.00000000</v>
  </separator>
  <separator name="orbital magnetization" >
   <i type="logical" name="NUCIND"> F  </i>
   <v name="MAGPOS">      0.00000000      0.00000000      0.00000000</v>
   <i type="logical" name="LNICSALL"> T  </i>
   <i type="logical" name="ORBITALMAG"> F  </i>
   <i type="logical" name="LMAGBLOCH"> F  </i>
   <i type="logical" name="LCHIMAG"> F  </i>
   <i type="logical" name="LGAUGE"> T  </i>
   <i type="int" name="MAGATOM">     0</i>
   <v name="MAGDIPOL">      0.00000000      0.00000000      0.00000000</v>
   <v name="AVECCONST">      0.00000000      0.00000000      0.00000000</v>
  </separator>
  <separator name="response functions" >
   <i type="logical" name="LADDER"> F  </i>
   <i type="logical" name="LRPAFORCE"> F  </i>
   <i type="logical" name="LFXC"> F  </i>
   <i type="logical" name="LHARTREE"> T  </i>
   <i type="int" name="IBSE">     0</i>
   <v type="int" name="KPOINT">    -1     0     0     0</v>
   <i type="logical" name="LTCTE"> F  </i>
   <i type="logical" name="LTETE"> F  </i>
   <i type="logical" name="LTRIPLET"> F  </i>
   <i type="logical" name="LFXCEPS"> F  </i>
   <i type="logical" name="LFXHEG"> F  </i>
   <i type="int" name="NATURALO">     2</i>
   <i type="logical" name="L2ORDER"> F  </i>
   <i type="logical" name="LMP2LT"> F  </i>
   <i type="logical" name="LUSEW"> F  </i>
   <i name="ENCUTGW">     -2.00000000</i>
   <i name="ENCUTGWSOFT">     -2.00000000</i>
   <i name="ENCUTLF">     -1.00000000</i>
   <i type="int" name="LMAXMP2">    -1</i>
   <i name="SCISSOR">      0.00000000</i>
   <i type="int" name="NOMEGA">     0</i>
   <i type="int" name="NOMEGAR">     0</i>
   <i type="int" name="NBANDSGW">    -1</i>
   <i type="int" name="NBANDSO">    -1</i>
   <i type="int" name="NBANDSV">    -1</i>
   <i type="int" name="NELM">   200</i>
   <i type="int" name="NELMHF">     1</i>
   <i type="int" name="DIM">     3</i>
   <i type="int" name="ANTIRES">     0</i>
   <i name="OMEGAMAX">    -30.00000000</i>
   <i name="OMEGAMIN">    -30.00000000</i>
   <i name="OMEGATL">   -200.00000000</i>
   <i type="int" name="OMEGAGRID">   140</i>
   <i name="CSHIFT">     -0.10000000</i>
   <i type="logical" name="SELFENERGY"> F  </i>
   <i type="logical" name="LSPECTRAL"> F  </i>
   <i type="logical" name="LSPECTRALGW"> F  </i>
   <i type="logical" name="LSINGLES"> F  </i>
   <i type="logical" name="LFERMIGW"> F  </i>
   <i type="logical" name="ODDONLYGW"> F  </i>
   <i type="logical" name="EVENONLYGW"> F  </i>
   <i type="int" name="NKREDLFX">     1</i>
   <i type="int" name="NKREDLFY">     1</i>
   <i type="int" name="NKREDLFZ">     1</i>
   <i type="int" name="MAXMEM">  2800</i>
   <i type="int" name="TELESCOPE">     0</i>
   <i type="int" name="TAUPAR">     1</i>
   <i type="int" name="OMEGAPAR">    -1</i>
   <i name="LAMBDA">      1.00000000</i>
  </separator>
  <separator name="External order field" >
   <i name="OFIELD_KAPPA">      0.00000000</i>
   <v name="OFIELD_K">      0.00000000      0.00000000      0.00000000</v>
   <i name="OFIELD_Q6_NEAR">      0.00000000</i>
   <i name="OFIELD_Q6_FAR">      0.00000000</i>
   <i name="OFIELD_A">      0.00000000</i>
  </separator>
  <separator name="solvation model" >
   <i type="logical" name="LSOL"> F  </i>
  </separator>
 </parameters>
 <atominfo>
  <atoms>      90 </atoms>
  <types>       4 </types>
  <array name="atoms" >
   <dimension dim="1">ion</dimension>
   <field type="string">element</field>
   <field type="int">atomtype</field>
   <set>
    <rc><c>C </c><c>   1</c></rc>
    <rc><c>C </c><c>   1</c></rc>
    <rc><c>C </c><c>   1</c></rc>
    <rc><c>C </c><c>   1</c></rc>
    <rc><c>C </c><c>   1</c></rc>
    <rc><c>C </c><c>   1</c></rc>
    <rc><c>C </c><c>   1</c></rc>
    <rc><c>C </c><c>   1</c></rc>
    <rc><c>C </c><c>   1</c></rc>
    <rc><c>C </c><c>   1</c></rc>
    <rc><c>C </c><c>   1</c></rc>
    <rc><c>C </c><c>   1</c></rc>
    <rc><c>C </c><c>   1</c></rc>
    <rc><c>C </c><c>   1</c></rc>
    <rc><c>C </c><c>   1</c></rc>
    <rc><c>C </c><c>   1</c></rc>
    <rc><c>C </c><c>   1</c></rc>
    <rc><c>C </c><c>   1</c></rc>
    <rc><c>C </c><c>   1</c></rc>
    <rc><c>C </c><c>   1</c></rc>
    <rc><c>C </c><c>   1</c></rc>
    <rc><c>C </c><c>   1</c></rc>
    <rc><c>C </c><c>   1</c></rc>
    <rc><c>C </c><c>   1</c></rc>
    <rc><c>C </c><c>   1</c></rc>
    <rc><c>C </c><c>   1</c></rc>
    <rc><c>C </c><c>   1</c></rc>
    <rc><c>C </c><c>   1</c></rc>
    <rc><c>C </c><c>   1</c></rc>
    <rc><c>C </c><c>   1</c></rc>
    <rc><c>C </c><c>   1</c></rc>
    <rc><c>C </c><c>   1</c></rc>
    <rc><c>C </c><c>   1</c></rc>
    <rc><c>C </c><c>   1</c></rc>
    <rc><c>C </c><c>   1</c></rc>
    <rc><c>C </c><c>   1</c></rc>
    <rc><c>C </c><c>   1</c></rc>
    <rc><c>C </c><c>   1</c></rc>
    <rc><c>C </c><c>   1</c></rc>
    <rc><c>C </c><c>   1</c></rc>
    <rc><c>C </c><c>   1</c></rc>
    <rc><c>C </c><c>   1</c></rc>
    <rc><c>C </c><c>   1</c></rc>
    <rc><c>C </c><c>   1</c></rc>
    <rc><c>C </c><c>   1</c></rc>
    <rc><c>C </c><c>   1</c></rc>
    <rc><c>C </c><c>   1</c></rc>
    <rc><c>C </c><c>   1</c></rc>
    <rc><c>H </c><c>   2</c></rc>
    <rc><c>H </c><c>   2</c></rc>
    <rc><c>H </c><c>   2</c></rc>
    <rc><c>H </c><c>   2</c></rc>
    <rc><c>H </c><c>   2</c></rc>
    <rc><c>H </c><c>   2</c></rc>
    <rc><c>H </c><c>   2</c></rc>
    <rc><c>H </c><c>   2</c></rc>
    <rc><c>H </c><c>   2</c></rc>
    <rc><c>H </c><c>   2</c></rc>
    <rc><c>H </c><c>   2</c></rc>
    <rc><c>H </c><c>   2</c></rc>
    <rc><c>H </c><c>   2</c></rc>
    <rc><c>H </c><c>   2</c></rc>
    <rc><c>H </c><c>   2</c></rc>
    <rc><c>H </c><c>   2</c></rc>
    <rc><c>H </c><c>   2</c></rc>
    <rc><c>H </c><c>   2</c></rc>
    <rc><c>H </c><c>   2</c></rc>
    <rc><c>H </c><c>   2</c></rc>
    <rc><c>H </c><c>   2</c></rc>
    <rc><c>H </c><c>   2</c></rc>
    <rc><c>H </c><c>   2</c></rc>
    <rc><c>H </c><c>   2</c></rc>
    <rc><c>O </c><c>   3</c></rc>
    <rc><c>O </c><c>   3</c></rc>
    <rc><c>O </c><c>   3</c></rc>
    <rc><c>O </c><c>   3</c></rc>
    <rc><c>O </c><c>   3</c></rc>
    <rc><c>O </c><c>   3</c></rc>
    <rc><c>O </c><c>   3</c></rc>
    <rc><c>O </c><c>   3</c></rc>
    <rc><c>O </c><c>   3</c></rc>
    <rc><c>O </c><c>   3</c></rc>
    <rc><c>O </c><c>   3</c></rc>
    <rc><c>O </c><c>   3</c></rc>
    <rc><c>N </c><c>   4</c></rc>
    <rc><c>N </c><c>   4</c></rc>
    <rc><c>N </c><c>   4</c></rc>
    <rc><c>N </c><c>   4</c></rc>
    <rc><c>N </c><c>   4</c></rc>
    <rc><c>N </c><c>   4</c></rc>
   </set>
  </array>
  <array name="atomtypes" >
   <dimension dim="1">type</dimension>
   <field type="int">atomspertype</field>
   <field type="string">element</field>
   <field>mass</field>
   <field>valence</field>
   <field type="string">pseudopotential</field>
   <set>
    <rc><c>  48</c><c>C </c><c>     12.01100000</c><c>      4.00000000</c><c>  PAW_PBE C 08Apr2002                   </c></rc>
    <rc><c>  24</c><c>H </c><c>      1.00000000</c><c>      1.00000000</c><c>  PAW_PBE H 15Jun2001                   </c></rc>
    <rc><c>  12</c><c>O </c><c>     16.00000000</c><c>      6.00000000</c><c>  PAW_PBE O 08Apr2002                   </c></rc>
    <rc><c>   6</c><c>N </c><c>     14.00100000</c><c>      5.00000000</c><c>  PAW_PBE N 08Apr2002                   </c></rc>
   </set>
  </array>
 </atominfo>
 <structure name="initialpos" >
  <crystal>
   <varray name="basis" >
    <v>      22.42272823       0.00000000       0.00000000 </v>
    <v>     -11.21136411      19.41865226       0.00000000 </v>
    <v>       0.00000000       0.00000000      20.00000000 </v>
   </varray>
   <i name="volume">   8708.38324529 </i>
   <varray name="rec_basis" >
    <v>       0.04459761       0.02574844       0.00000000 </v>
    <v>      -0.00000000       0.05149688       0.00000000 </v>
    <v>       0.00000000       0.00000000       0.05000000 </v>
   </varray>
  </crystal>
  <varray name="positions" >
   <v>       0.48080823       0.52028589       0.49487063 </v>
   <v>       0.42416271       0.49986358       0.45237781 </v>
   <v>       0.38803164       0.53539024       0.45262840 </v>
   <v>       0.46537915       0.61307026       0.53646094 </v>
   <v>       0.50101393       0.57703887       0.53715216 </v>
   <v>       0.40816325       0.59269730       0.49444471 </v>
   <v>       0.36987433       0.63060453       0.49431328 </v>
   <v>       0.40516166       0.70281356       0.49430429 </v>
   <v>       0.29765190       0.59483834       0.49430429 </v>
   <v>       0.36939547       0.73926980       0.49431328 </v>
   <v>       0.29718644       0.70234810       0.49430429 </v>
   <v>       0.26073020       0.63012567       0.49431328 </v>
   <v>       0.63072262       0.36969325       0.49365733 </v>
   <v>       0.59472205       0.29756818       0.49362393 </v>
   <v>       0.63030675       0.26102937       0.49365733 </v>
   <v>       0.70243182       0.29715387       0.49362393 </v>
   <v>       0.73897063       0.36927738       0.49365733 </v>
   <v>       0.70284613       0.40527795       0.49362393 </v>
   <v>       0.03947766       0.51919177       0.49487063 </v>
   <v>       0.07570088       0.57583729       0.45237781 </v>
   <v>       0.14735860       0.61196836       0.45262840 </v>
   <v>       0.96317016       0.48095888       0.49479557 </v>
   <v>       0.81549485       0.40733662       0.49400972 </v>
   <v>       0.85253158       0.40851855       0.43726171 </v>
   <v>       0.92419462       0.44380396       0.43903495 </v>
   <v>       0.47971411       0.96052234       0.49487063 </v>
   <v>       0.50013642       0.92429912       0.45237781 </v>
   <v>       0.46460976       0.85264140       0.45262840 </v>
   <v>       0.51778872       0.03682984       0.49479557 </v>
   <v>       0.59184176       0.18450515       0.49400972 </v>
   <v>       0.55598696       0.14746842       0.43726171 </v>
   <v>       0.51960934       0.07580538       0.43903495 </v>
   <v>       0.51904112       0.48221128       0.49479557 </v>
   <v>       0.59266338       0.40815824       0.49400972 </v>
   <v>       0.59148145       0.44401304       0.43726171 </v>
   <v>       0.55619604       0.48039066       0.43903495 </v>
   <v>       0.18453405       0.59183675       0.49444471 </v>
   <v>       0.14769110       0.53462085       0.53646094 </v>
   <v>       0.07602493       0.49898607       0.53715216 </v>
   <v>       0.92369264       0.47892725       0.55020559 </v>
   <v>       0.85199892       0.44274974       0.55116968 </v>
   <v>       0.40730270       0.81546595       0.49444471 </v>
   <v>       0.38692974       0.85230890       0.53646094 </v>
   <v>       0.42296113       0.92397507       0.53715216 </v>
   <v>       0.55523461       0.07630736       0.55020559 </v>
   <v>       0.59075081       0.14800108       0.55116968 </v>
   <v>       0.52107275       0.44476539       0.55020559 </v>
   <v>       0.55725026       0.40924919       0.55116968 </v>
   <v>       0.40801937       0.45560788       0.41942267 </v>
   <v>       0.54519910       0.59339875       0.57025076 </v>
   <v>       0.34424840       0.51930622       0.41906725 </v>
   <v>       0.48132743       0.65698126       0.56981827 </v>
   <v>       0.26973879       0.53863706       0.49431744 </v>
   <v>       0.46136294       0.73110172       0.49431744 </v>
   <v>       0.26889828       0.73026121       0.49431744 </v>
   <v>       0.73037425       0.26889532       0.49367059 </v>
   <v>       0.73110468       0.46147893       0.49367059 </v>
   <v>       0.53852107       0.26962575       0.49367059 </v>
   <v>       0.04758851       0.59198063       0.41942267 </v>
   <v>       0.17505782       0.65575160       0.41906725 </v>
   <v>       0.82613048       0.38218130       0.39149138 </v>
   <v>       0.54439212       0.95241149       0.41942267 </v>
   <v>       0.48069378       0.82494218       0.41906725 </v>
   <v>       0.55605082       0.17386952       0.39149138 </v>
   <v>       0.61781870       0.44394918       0.39149138 </v>
   <v>       0.82509240       0.44251030       0.59663133 </v>
   <v>       0.17565384       0.51867257       0.56981827 </v>
   <v>       0.04819965       0.45480090       0.57025076 </v>
   <v>       0.61741789       0.17490760       0.59663133 </v>
   <v>       0.34301874       0.82434616       0.56981827 </v>
   <v>       0.40660125       0.95180035       0.57025076 </v>
   <v>       0.55748970       0.38258211       0.59663133 </v>
   <v>       0.00287472       0.42136177       0.38545915 </v>
   <v>       0.94092757       0.45225014       0.32426816 </v>
   <v>       0.41848705       0.99712528       0.38545915 </v>
   <v>       0.51132257       0.05907243       0.32426816 </v>
   <v>       0.57863823       0.58151295       0.38545915 </v>
   <v>       0.54774986       0.48867743       0.32426816 </v>
   <v>       0.93894807       0.48652685       0.66518502 </v>
   <v>       0.00243161       0.57946782       0.60471574 </v>
   <v>       0.54757878       0.06105193       0.66518502 </v>
   <v>       0.57703620       0.99756839       0.60471574 </v>
   <v>       0.51347315       0.45242122       0.66518502 </v>
   <v>       0.42053218       0.42296380       0.60471574 </v>
   <v>       0.95931344       0.43919819       0.37812968 </v>
   <v>       0.47988476       0.04068656       0.37812968 </v>
   <v>       0.56080181       0.52011524       0.37812968 </v>
   <v>       0.95828123       0.51820261       0.61153080 </v>
   <v>       0.55992138       0.04171877       0.61153080 </v>
   <v>       0.48179739       0.44007862       0.61153080 </v>
  </varray>
 </structure>
 <calculation>
  <scstep>
   <time name="dav">  150.59  151.90</time>
   <time name="total">  150.75  152.06</time>
   <energy>
    <i name="alphaZ">     53.00129606 </i>
    <i name="ewald">  36017.42884313 </i>
    <i name="hartreedc"> -47646.31277698 </i>
    <i name="XCdc">   1181.80617910 </i>
    <i name="pawpsdc">  29050.75823785 </i>
    <i name="pawaedc"> -29115.08075536 </i>
    <i name="eentropy">     -0.00000000 </i>
    <i name="bandstr">  -4312.62124139 </i>
    <i name="atom">  14138.28486923 </i>
    <i name="e_fr_energy">   -632.73534835 </i>
    <i name="e_wo_entrp">   -632.73534835 </i>
    <i name="e_0_energy">   -632.73534835 </i>
   </energy>
  </scstep>
  <scstep>
   <time name="dav">  157.39  158.77</time>
   <time name="total">  157.40  158.78</time>
   <energy>
    <i name="e_fr_energy">   -633.46273686 </i>
    <i name="e_wo_entrp">   -633.46273686 </i>
    <i name="e_0_energy">   -633.46273686 </i>
   </energy>
  </scstep>
  <scstep>
   <time name="dav">  179.12  180.73</time>
   <time name="total">  179.13  180.73</time>
   <energy>
    <i name="e_fr_energy">   -633.48751292 </i>
    <i name="e_wo_entrp">   -633.48751292 </i>
    <i name="e_0_energy">   -633.48751292 </i>
   </energy>
  </scstep>
  <scstep>
   <time name="dav">  156.85  158.28</time>
   <time name="total">  156.86  158.28</time>
   <energy>
    <i name="e_fr_energy">   -633.48792980 </i>
    <i name="e_wo_entrp">   -633.48792980 </i>
    <i name="e_0_energy">   -633.48792980 </i>
   </energy>
  </scstep>
  <scstep>
   <time name="dav">  162.01  163.48</time>
   <time name="total">  162.02  163.49</time>
   <energy>
    <i name="e_fr_energy">   -633.48795366 </i>
    <i name="e_wo_entrp">   -633.48795366 </i>
    <i name="e_0_energy">   -633.48795366 </i>
   </energy>
  </scstep>
  <scstep>
   <time name="dav">  122.02  123.10</time>
   <time name="total">  122.03  123.11</time>
   <energy>
    <i name="alphaZ">     53.00129606 </i>
    <i name="ewald">  36017.42884313 </i>
    <i name="hartreedc"> -47646.31277698 </i>
    <i name="XCdc">   1181.80617910 </i>
    <i name="pawpsdc">  29050.75823785 </i>
    <i name="pawaedc"> -29115.08075536 </i>
    <i name="eentropy">     -0.00000000 </i>
    <i name="bandstr">  -4313.37384741 </i>
    <i name="atom">  14138.28486923 </i>
    <i name="e_fr_energy">   -633.48795437 </i>
    <i name="e_wo_entrp">   -633.48795437 </i>
    <i name="e_0_energy">   -633.48795437 </i>
   </energy>
  </scstep>
  <structure>
   <crystal>
    <varray name="basis" >
     <v>      22.42272823       0.00000000       0.00000000 </v>
     <v>     -11.21136411      19.41865226       0.00000000 </v>
     <v>       0.00000000       0.00000000      20.00000000 </v>
    </varray>
    <i name="volume">   8708.38324529 </i>
    <varray name="rec_basis" >
     <v>       0.04459761       0.02574844       0.00000000 </v>
     <v>      -0.00000000       0.05149688       0.00000000 </v>
     <v>       0.00000000       0.00000000       0.05000000 </v>
    </varray>
   </crystal>
   <varray name="positions" >
    <v>       0.48080823       0.52028589       0.49487063 </v>
    <v>       0.42416271       0.49986358       0.45237781 </v>
    <v>       0.38803164       0.53539024       0.45262840 </v>
    <v>       0.46537915       0.61307026       0.53646094 </v>
    <v>       0.50101393       0.57703887       0.53715216 </v>
    <v>       0.40816325       0.59269730       0.49444471 </v>
    <v>       0.36987433       0.63060453       0.49431328 </v>
    <v>       0.40516166       0.70281356       0.49430429 </v>
    <v>       0.29765190       0.59483834       0.49430429 </v>
    <v>       0.36939547       0.73926980       0.49431328 </v>
    <v>       0.29718644       0.70234810       0.49430429 </v>
    <v>       0.26073020       0.63012567       0.49431328 </v>
    <v>       0.63072262       0.36969325       0.49365733 </v>
    <v>       0.59472205       0.29756818       0.49362393 </v>
    <v>       0.63030675       0.26102937       0.49365733 </v>
    <v>       0.70243182       0.29715387       0.49362393 </v>
    <v>       0.73897063       0.36927738       0.49365733 </v>
    <v>       0.70284613       0.40527795       0.49362393 </v>
    <v>       0.03947766       0.51919177       0.49487063 </v>
    <v>       0.07570088       0.57583729       0.45237781 </v>
    <v>       0.14735860       0.61196836       0.45262840 </v>
    <v>       0.96317016       0.48095888       0.49479557 </v>
    <v>       0.81549485       0.40733662       0.49400972 </v>
    <v>       0.85253158       0.40851855       0.43726171 </v>
    <v>       0.92419462       0.44380396       0.43903495 </v>
    <v>       0.47971411       0.96052234       0.49487063 </v>
    <v>       0.50013642       0.92429912       0.45237781 </v>
    <v>       0.46460976       0.85264140       0.45262840 </v>
    <v>       0.51778872       0.03682984       0.49479557 </v>
    <v>       0.59184176       0.18450515       0.49400972 </v>
    <v>       0.55598696       0.14746842       0.43726171 </v>
    <v>       0.51960934       0.07580538       0.43903495 </v>
    <v>       0.51904112       0.48221128       0.49479557 </v>
    <v>       0.59266338       0.40815824       0.49400972 </v>
    <v>       0.59148145       0.44401304       0.43726171 </v>
    <v>       0.55619604       0.48039066       0.43903495 </v>
    <v>       0.18453405       0.59183675       0.49444471 </v>
    <v>       0.14769110       0.53462085       0.53646094 </v>
    <v>       0.07602493       0.49898607       0.53715216 </v>
    <v>       0.92369264       0.47892725       0.55020559 </v>
    <v>       0.85199892       0.44274974       0.55116968 </v>
    <v>       0.40730270       0.81546595       0.49444471 </v>
    <v>       0.38692974       0.85230890       0.53646094 </v>
    <v>       0.42296113       0.92397507       0.53715216 </v>
    <v>       0.55523461       0.07630736       0.55020559 </v>
    <v>       0.59075081       0.14800108       0.55116968 </v>
    <v>       0.52107275       0.44476539       0.55020559 </v>
    <v>       0.55725026       0.40924919       0.55116968 </v>
    <v>       0.40801937       0.45560788       0.41942267 </v>
    <v>       0.54519910       0.59339875       0.57025076 </v>
    <v>       0.34424840       0.51930622       0.41906725 </v>
    <v>       0.48132743       0.65698126       0.56981827 </v>
    <v>       0.26973879       0.53863706       0.49431744 </v>
    <v>       0.46136294       0.73110172       0.49431744 </v>
    <v>       0.26889828       0.73026121       0.49431744 </v>
    <v>       0.73037425       0.26889532       0.49367059 </v>
    <v>       0.73110468       0.46147893       0.49367059 </v>
    <v>       0.53852107       0.26962575       0.49367059 </v>
    <v>       0.04758851       0.59198063       0.41942267 </v>
    <v>       0.17505782       0.65575160       0.41906725 </v>
    <v>       0.82613048       0.38218130       0.39149138 </v>
    <v>       0.54439212       0.95241149       0.41942267 </v>
    <v>       0.48069378       0.82494218       0.41906725 </v>
    <v>       0.55605082       0.17386952       0.39149138 </v>
    <v>       0.61781870       0.44394918       0.39149138 </v>
    <v>       0.82509240       0.44251030       0.59663133 </v>
    <v>       0.17565384       0.51867257       0.56981827 </v>
    <v>       0.04819965       0.45480090       0.57025076 </v>
    <v>       0.61741789       0.17490760       0.59663133 </v>
    <v>       0.34301874       0.82434616       0.56981827 </v>
    <v>       0.40660125       0.95180035       0.57025076 </v>
    <v>       0.55748970       0.38258211       0.59663133 </v>
    <v>       0.00287472       0.42136177       0.38545915 </v>
    <v>       0.94092757       0.45225014       0.32426816 </v>
    <v>       0.41848705       0.99712528       0.38545915 </v>
    <v>       0.51132257       0.05907243       0.32426816 </v>
    <v>       0.57863823       0.58151295       0.38545915 </v>
    <v>       0.54774986       0.48867743       0.32426816 </v>
    <v>       0.93894807       0.48652685       0.66518502 </v>
    <v>       0.00243161       0.57946782       0.60471574 </v>
    <v>       0.54757878       0.06105193       0.66518502 </v>
    <v>       0.57703620       0.99756839       0.60471574 </v>
    <v>       0.51347315       0.45242122       0.66518502 </v>
    <v>       0.42053218       0.42296380       0.60471574 </v>
    <v>       0.95931344       0.43919819       0.37812968 </v>
    <v>       0.47988476       0.04068656       0.37812968 </v>
    <v>       0.56080181       0.52011524       0.37812968 </v>
    <v>       0.95828123       0.51820261       0.61153080 </v>
    <v>       0.55992138       0.04171877       0.61153080 </v>
    <v>       0.48179739       0.44007862       0.61153080 </v>
   </varray>
  </structure>
  <varray name="forces" >
   <v>      -0.00237992       0.00011788      -0.00070809 </v>
   <v>       0.00056628       0.00386762       0.00013981 </v>
   <v>      -0.00031453       0.00019695      -0.00104541 </v>
   <v>      -0.00098096      -0.00145463      -0.00021235 </v>
   <v>      -0.00254618      -0.00163559      -0.00234791 </v>
   <v>       0.00256526      -0.00350000       0.00078837 </v>
   <v>      -0.00419357       0.00164066       0.00138258 </v>
   <v>      -0.00317546      -0.00239267       0.00024865 </v>
   <v>      -0.00048438       0.00394637       0.00024865 </v>
   <v>       0.00067594      -0.00445207       0.00138258 </v>
   <v>       0.00365984      -0.00155370       0.00024865 </v>
   <v>       0.00351764       0.00281141       0.00138258 </v>
   <v>       0.00093747      -0.00097502       0.00118765 </v>
   <v>       0.00197223      -0.00090520       0.00312592 </v>
   <v>       0.00037566       0.00129938       0.00118765 </v>
   <v>      -0.00020219       0.00216061       0.00312592 </v>
   <v>      -0.00131313      -0.00032436       0.00118765 </v>
   <v>      -0.00177005      -0.00125540       0.00312592 </v>
   <v>       0.00129205       0.00200214      -0.00070809 </v>
   <v>       0.00306632      -0.00242422       0.00013981 </v>
   <v>       0.00032783       0.00017391      -0.00104541 </v>
   <v>      -0.00113515       0.00023306      -0.00001250 </v>
   <v>      -0.00004738       0.00240622       0.00235731 </v>
   <v>       0.00066596       0.00086871       0.00086443 </v>
   <v>      -0.00237851       0.00143660      -0.00010982 </v>
   <v>       0.00108788      -0.00212001      -0.00070809 </v>
   <v>      -0.00363260      -0.00144340       0.00013981 </v>
   <v>      -0.00001330      -0.00037086      -0.00104541 </v>
   <v>       0.00076941       0.00086654      -0.00001250 </v>
   <v>       0.00210754      -0.00116208       0.00235731 </v>
   <v>       0.00041935      -0.00101109       0.00086443 </v>
   <v>       0.00243339       0.00134155      -0.00010982 </v>
   <v>       0.00036574      -0.00109960      -0.00001250 </v>
   <v>      -0.00206016      -0.00124414       0.00235731 </v>
   <v>      -0.00108531       0.00014238       0.00086443 </v>
   <v>      -0.00005488      -0.00277815      -0.00010982 </v>
   <v>      -0.00431372      -0.00047158       0.00078837 </v>
   <v>      -0.00076926       0.00157685      -0.00021235 </v>
   <v>      -0.00014337       0.00302285      -0.00234791 </v>
   <v>       0.00408320       0.00189823      -0.00069115 </v>
   <v>       0.00087508       0.00168669      -0.00016509 </v>
   <v>       0.00174846       0.00397158       0.00078837 </v>
   <v>       0.00175022      -0.00012222      -0.00021235 </v>
   <v>       0.00268955      -0.00138726      -0.00234791 </v>
   <v>      -0.00039769      -0.00448527      -0.00069115 </v>
   <v>       0.00102318      -0.00160118      -0.00016509 </v>
   <v>      -0.00368551       0.00258704      -0.00069115 </v>
   <v>      -0.00189826      -0.00008551      -0.00016509 </v>
   <v>      -0.00068885       0.00286818      -0.00281203 </v>
   <v>      -0.00133926      -0.00178592      -0.00102183 </v>
   <v>       0.00071644       0.00053281      -0.00053296 </v>
   <v>       0.00007158      -0.00287672       0.00069107 </v>
   <v>      -0.00101856       0.00036059       0.00088298 </v>
   <v>       0.00019700      -0.00106239       0.00088298 </v>
   <v>       0.00082156       0.00070180       0.00088298 </v>
   <v>       0.00031282       0.00020391       0.00211499 </v>
   <v>      -0.00033300       0.00016896       0.00211499 </v>
   <v>       0.00002018      -0.00037287       0.00211499 </v>
   <v>       0.00282834      -0.00083753      -0.00281203 </v>
   <v>       0.00010320      -0.00088686      -0.00053296 </v>
   <v>      -0.00234688      -0.00259663      -0.00080182 </v>
   <v>      -0.00213950      -0.00203065      -0.00281203 </v>
   <v>      -0.00081965       0.00035405      -0.00053296 </v>
   <v>      -0.00107531       0.00333078      -0.00080182 </v>
   <v>       0.00342219      -0.00073414      -0.00080182 </v>
   <v>      -0.00031733       0.00173823       0.00219234 </v>
   <v>      -0.00252710       0.00137637       0.00069107 </v>
   <v>      -0.00087702       0.00205279      -0.00102183 </v>
   <v>       0.00166401      -0.00059430       0.00219234 </v>
   <v>       0.00245552       0.00150035       0.00069107 </v>
   <v>       0.00221628      -0.00026688      -0.00102183 </v>
   <v>      -0.00134669      -0.00114393       0.00219234 </v>
   <v>      -0.00359277      -0.00019271      -0.00178377 </v>
   <v>      -0.00037659      -0.00168377       0.00331519 </v>
   <v>       0.00162949       0.00320778      -0.00178377 </v>
   <v>      -0.00126989       0.00116802       0.00331519 </v>
   <v>       0.00196327      -0.00301507      -0.00178377 </v>
   <v>       0.00164648       0.00051575       0.00331519 </v>
   <v>       0.00011914       0.00375697       0.00087596 </v>
   <v>       0.00072546       0.00675680      -0.00139178 </v>
   <v>       0.00319406      -0.00198167       0.00087596 </v>
   <v>       0.00548883      -0.00400666      -0.00139178 </v>
   <v>      -0.00331320      -0.00177530       0.00087596 </v>
   <v>      -0.00621429      -0.00275013      -0.00139178 </v>
   <v>       0.00050789       0.00129760      -0.00450680 </v>
   <v>       0.00086981      -0.00108864      -0.00450680 </v>
   <v>      -0.00137770      -0.00020896      -0.00450680 </v>
   <v>       0.00113595      -0.00217831      -0.00202396 </v>
   <v>      -0.00245445       0.00010539      -0.00202396 </v>
   <v>       0.00131850       0.00207292      -0.00202396 </v>
  </varray>
  <varray name="stress" >
   <v>       0.00761240       0.00000000       0.00000000 </v>
   <v>      -0.00000000       0.00761240      -0.00000000 </v>
   <v>       0.00000000       0.00000000      -0.28165730 </v>
  </varray>
  <energy>
   <i name="e_fr_energy">   -635.59543397 </i>
   <i name="e_wo_entrp">   -635.59543397 </i>
   <i name="e_0_energy">     -0.00000000 </i>
  </energy>
  <time name="totalsc"> 1060.10 1069.97</time>
  <eigenvalues>
   <array>
    <dimension dim="1">band</dimension>
    <dimension dim="2">kpoint</dimension>
    <dimension dim="3">spin</dimension>
    <field>eigene</field>
    <field>occ</field>
    <set>
     <set comment="spin 1">
      <set comment="kpoint 1">
       <r>  -30.8594    1.0000 </r>
       <r>  -30.8593    1.0000 </r>
       <r>  -30.8591    1.0000 </r>
       <r>  -30.8543    1.0000 </r>
       <r>  -30.8537    1.0000 </r>
       <r>  -30.8535    1.0000 </r>
       <r>  -26.4964    1.0000 </r>
       <r>  -26.4964    1.0000 </r>
       <r>  -26.4962    1.0000 </r>
       <r>  -26.4945    1.0000 </r>
       <r>  -26.4941    1.0000 </r>
       <r>  -26.4939    1.0000 </r>
       <r>  -22.9648    1.0000 </r>
       <r>  -22.8743    1.0000 </r>
       <r>  -22.8741    1.0000 </r>
       <r>  -22.2141    1.0000 </r>
       <r>  -21.7270    1.0000 </r>
       <r>  -21.4806    1.0000 </r>
       <r>  -21.4803    1.0000 </r>
       <r>  -21.0004    1.0000 </r>
       <r>  -20.7552    1.0000 </r>
       <r>  -20.7550    1.0000 </r>
       <r>  -20.7462    1.0000 </r>
       <r>  -20.7424    1.0000 </r>
       <r>  -20.7422    1.0000 </r>
       <r>  -19.9392    1.0000 </r>
       <r>  -19.6112    1.0000 </r>
       <r>  -19.6109    1.0000 </r>
       <r>  -18.7851    1.0000 </r>
       <r>  -18.7851    1.0000 </r>
       <r>  -18.7182    1.0000 </r>
       <r>  -18.4406    1.0000 </r>
       <r>  -18.4404    1.0000 </r>
       <r>  -18.4212    1.0000 </r>
       <r>  -18.2049    1.0000 </r>
       <r>  -18.2047    1.0000 </r>
       <r>  -17.6253    1.0000 </r>
       <r>  -17.5456    1.0000 </r>
       <r>  -17.5454    1.0000 </r>
       <r>  -17.5438    1.0000 </r>
       <r>  -17.3274    1.0000 </r>
       <r>  -17.3273    1.0000 </r>
       <r>  -16.3463    1.0000 </r>
       <r>  -16.3462    1.0000 </r>
       <r>  -16.0451    1.0000 </r>
       <r>  -15.4909    1.0000 </r>
       <r>  -15.4908    1.0000 </r>
       <r>  -15.0620    1.0000 </r>
       <r>  -14.9165    1.0000 </r>
       <r>  -14.9162    1.0000 </r>
       <r>  -14.8429    1.0000 </r>
       <r>  -14.5503    1.0000 </r>
       <r>  -14.5255    1.0000 </r>
       <r>  -14.5253    1.0000 </r>
       <r>  -14.4579    1.0000 </r>
       <r>  -14.4577    1.0000 </r>
       <r>  -13.9440    1.0000 </r>
       <r>  -13.9438    1.0000 </r>
       <r>  -13.8709    1.0000 </r>
       <r>  -13.6308    1.0000 </r>
       <r>  -13.5895    1.0000 </r>
       <r>  -13.5893    1.0000 </r>
       <r>  -13.5495    1.0000 </r>
       <r>  -13.5493    1.0000 </r>
       <r>  -13.1769    1.0000 </r>
       <r>  -13.1476    1.0000 </r>
       <r>  -13.0505    1.0000 </r>
       <r>  -13.0503    1.0000 </r>
       <r>  -12.9154    1.0000 </r>
       <r>  -12.8646    1.0000 </r>
       <r>  -12.8644    1.0000 </r>
       <r>  -12.7734    1.0000 </r>
       <r>  -12.7732    1.0000 </r>
       <r>  -12.7591    1.0000 </r>
       <r>  -12.6479    1.0000 </r>
       <r>  -12.6224    1.0000 </r>
       <r>  -12.6222    1.0000 </r>
       <r>  -12.5756    1.0000 </r>
       <r>  -12.4105    1.0000 </r>
       <r>  -12.3941    1.0000 </r>
       <r>  -12.3939    1.0000 </r>
       <r>  -12.1835    1.0000 </r>
       <r>  -11.8789    1.0000 </r>
       <r>  -11.8166    1.0000 </r>
       <r>  -11.8164    1.0000 </r>
       <r>  -11.7738    1.0000 </r>
       <r>  -11.7194    1.0000 </r>
       <r>  -11.7191    1.0000 </r>
       <r>  -11.6560    1.0000 </r>
       <r>  -11.6254    1.0000 </r>
       <r>  -11.2120    1.0000 </r>
       <r>  -11.2118    1.0000 </r>
       <r>  -10.9642    1.0000 </r>
       <r>  -10.9640    1.0000 </r>
       <r>  -10.7063    1.0000 </r>
       <r>  -10.6096    1.0000 </r>
       <r>  -10.5042    1.0000 </r>
       <r>  -10.5041    1.0000 </r>
       <r>  -10.1807    1.0000 </r>
       <r>  -10.1696    1.0000 </r>
       <r>  -10.1694    1.0000 </r>
       <r>  -10.1373    1.0000 </r>
       <r>  -10.1193    1.0000 </r>
       <r>  -10.0904    1.0000 </r>
       <r>  -10.0901    1.0000 </r>
       <r>  -10.0444    1.0000 </r>
       <r>  -10.0442    1.0000 </r>
       <r>   -9.9226    1.0000 </r>
       <r>   -9.9226    1.0000 </r>
       <r>   -9.9219    1.0000 </r>
       <r>   -9.4768    1.0000 </r>
       <r>   -9.1354    1.0000 </r>
       <r>   -9.1073    1.0000 </r>
       <r>   -9.1071    1.0000 </r>
       <r>   -9.0024    1.0000 </r>
       <r>   -9.0023    1.0000 </r>
       <r>   -8.8510    1.0000 </r>
       <r>   -8.8509    1.0000 </r>
       <r>   -8.7195    1.0000 </r>
       <r>   -8.6359    1.0000 </r>
       <r>   -8.3015    1.0000 </r>
       <r>   -8.3014    1.0000 </r>
       <r>   -8.1231    1.0000 </r>
       <r>   -7.9151    1.0000 </r>
       <r>   -7.9151    1.0000 </r>
       <r>   -7.8507    1.0000 </r>
       <r>   -7.8506    1.0000 </r>
       <r>   -7.8502    1.0000 </r>
       <r>   -7.7317    1.0000 </r>
       <r>   -7.7316    1.0000 </r>
       <r>   -7.7220    1.0000 </r>
       <r>   -7.7119    1.0000 </r>
       <r>   -7.7119    1.0000 </r>
       <r>   -7.6889    1.0000 </r>
       <r>   -7.5046    1.0000 </r>
       <r>   -7.5044    1.0000 </r>
       <r>   -7.3069    1.0000 </r>
       <r>   -7.2870    1.0000 </r>
       <r>   -7.2596    1.0000 </r>
       <r>   -7.2595    1.0000 </r>
       <r>   -7.2174    1.0000 </r>
       <r>   -7.2173    1.0000 </r>
       <r>   -7.0179    1.0000 </r>
       <r>   -6.8356    1.0000 </r>
       <r>   -6.8356    1.0000 </r>
       <r>   -6.7138    1.0000 </r>
       <r>   -6.7136    1.0000 </r>
       <r>   -6.5803    1.0000 </r>
       <r>   -6.5457    1.0000 </r>
       <r>   -6.5456    1.0000 </r>
       <r>   -6.4982    1.0000 </r>
       <r>   -6.4803    1.0000 </r>
       <r>   -6.4802    1.0000 </r>
       <r>   -6.2646    1.0000 </r>
       <r>   -6.2644    1.0000 </r>
       <r>   -6.2634    1.0000 </r>
       <r>   -5.9158    1.0000 </r>
       <r>   -5.4889    1.0000 </r>
       <r>   -5.4888    1.0000 </r>
       <r>   -3.4246    0.0000 </r>
       <r>   -3.4244    0.0000 </r>
       <r>   -3.4143    0.0000 </r>
       <r>   -3.2942    0.0000 </r>
       <r>   -3.2940    0.0000 </r>
       <r>   -3.2803    0.0000 </r>
       <r>   -2.2968    0.0000 </r>
       <r>   -2.2968    0.0000 </r>
       <r>   -1.9695    0.0000 </r>
       <r>   -1.9694    0.0000 </r>
       <r>   -1.9395    0.0000 </r>
       <r>   -1.8062    0.0000 </r>
       <r>   -1.6670    0.0000 </r>
       <r>   -1.6670    0.0000 </r>
       <r>   -1.5052    0.0000 </r>
       <r>   -1.5051    0.0000 </r>
       <r>   -1.1931    0.0000 </r>
       <r>   -1.1640    0.0000 </r>
       <r>   -1.1637    0.0000 </r>
       <r>   -1.0943    0.0000 </r>
       <r>   -0.5090    0.0000 </r>
       <r>   -0.3748    0.0000 </r>
       <r>   -0.3746    0.0000 </r>
       <r>   -0.1267    0.0000 </r>
       <r>   -0.0675    0.0000 </r>
       <r>   -0.0671    0.0000 </r>
       <r>    0.0034    0.0000 </r>
       <r>    0.0710    0.0000 </r>
       <r>    0.1990    0.0000 </r>
       <r>    0.1994    0.0000 </r>
       <r>    0.3964    0.0000 </r>
       <r>    0.3968    0.0000 </r>
       <r>    0.4521    0.0000 </r>
       <r>    0.5156    0.0000 </r>
       <r>    0.5160    0.0000 </r>
       <r>    0.7263    0.0000 </r>
       <r>    0.7672    0.0000 </r>
       <r>    0.7676    0.0000 </r>
       <r>    0.8610    0.0000 </r>
       <r>    0.8614    0.0000 </r>
       <r>    0.8773    0.0000 </r>
       <r>    0.9187    0.0000 </r>
       <r>    0.9299    0.0000 </r>
       <r>    1.0459    0.0000 </r>
       <r>    1.0465    0.0000 </r>
       <r>    1.0901    0.0000 </r>
       <r>    1.1234    0.0000 </r>
       <r>    1.2050    0.0000 </r>
       <r>    1.2066    0.0000 </r>
      </set>
      <set comment="kpoint 2">
       <r>  -30.8594    1.0000 </r>
       <r>  -30.8593    1.0000 </r>
       <r>  -30.8591    1.0000 </r>
       <r>  -30.8543    1.0000 </r>
       <r>  -30.8537    1.0000 </r>
       <r>  -30.8535    1.0000 </r>
       <r>  -26.4964    1.0000 </r>
       <r>  -26.4964    1.0000 </r>
       <r>  -26.4962    1.0000 </r>
       <r>  -26.4945    1.0000 </r>
       <r>  -26.4941    1.0000 </r>
       <r>  -26.4939    1.0000 </r>
       <r>  -22.9648    1.0000 </r>
       <r>  -22.8743    1.0000 </r>
       <r>  -22.8741    1.0000 </r>
       <r>  -22.2140    1.0000 </r>
       <r>  -21.7272    1.0000 </r>
       <r>  -21.4804    1.0000 </r>
       <r>  -21.4801    1.0000 </r>
       <r>  -21.0016    1.0000 </r>
       <r>  -20.7550    1.0000 </r>
       <r>  -20.7543    1.0000 </r>
       <r>  -20.7462    1.0000 </r>
       <r>  -20.7424    1.0000 </r>
       <r>  -20.7418    1.0000 </r>
       <r>  -19.9408    1.0000 </r>
       <r>  -19.6110    1.0000 </r>
       <r>  -19.6093    1.0000 </r>
       <r>  -18.7898    1.0000 </r>
       <r>  -18.7851    1.0000 </r>
       <r>  -18.7141    1.0000 </r>
       <r>  -18.4406    1.0000 </r>
       <r>  -18.4404    1.0000 </r>
       <r>  -18.4212    1.0000 </r>
       <r>  -18.2049    1.0000 </r>
       <r>  -18.2047    1.0000 </r>
       <r>  -17.6252    1.0000 </r>
       <r>  -17.5456    1.0000 </r>
       <r>  -17.5454    1.0000 </r>
       <r>  -17.5438    1.0000 </r>
       <r>  -17.3275    1.0000 </r>
       <r>  -17.3273    1.0000 </r>
       <r>  -16.3464    1.0000 </r>
       <r>  -16.3462    1.0000 </r>
       <r>  -16.0453    1.0000 </r>
       <r>  -15.4908    1.0000 </r>
       <r>  -15.4901    1.0000 </r>
       <r>  -15.0620    1.0000 </r>
       <r>  -14.9169    1.0000 </r>
       <r>  -14.9164    1.0000 </r>
       <r>  -14.8432    1.0000 </r>
       <r>  -14.5503    1.0000 </r>
       <r>  -14.5257    1.0000 </r>
       <r>  -14.5255    1.0000 </r>
       <r>  -14.4576    1.0000 </r>
       <r>  -14.4574    1.0000 </r>
       <r>  -13.9444    1.0000 </r>
       <r>  -13.9439    1.0000 </r>
       <r>  -13.8704    1.0000 </r>
       <r>  -13.6307    1.0000 </r>
       <r>  -13.5896    1.0000 </r>
       <r>  -13.5894    1.0000 </r>
       <r>  -13.5494    1.0000 </r>
       <r>  -13.5493    1.0000 </r>
       <r>  -13.1767    1.0000 </r>
       <r>  -13.1476    1.0000 </r>
       <r>  -13.0504    1.0000 </r>
       <r>  -13.0502    1.0000 </r>
       <r>  -12.9154    1.0000 </r>
       <r>  -12.8646    1.0000 </r>
       <r>  -12.8644    1.0000 </r>
       <r>  -12.7742    1.0000 </r>
       <r>  -12.7732    1.0000 </r>
       <r>  -12.7586    1.0000 </r>
       <r>  -12.6478    1.0000 </r>
       <r>  -12.6224    1.0000 </r>
       <r>  -12.6222    1.0000 </r>
       <r>  -12.5757    1.0000 </r>
       <r>  -12.4105    1.0000 </r>
       <r>  -12.3940    1.0000 </r>
       <r>  -12.3939    1.0000 </r>
       <r>  -12.1835    1.0000 </r>
       <r>  -11.8829    1.0000 </r>
       <r>  -11.8164    1.0000 </r>
       <r>  -11.8131    1.0000 </r>
       <r>  -11.7738    1.0000 </r>
       <r>  -11.7194    1.0000 </r>
       <r>  -11.7191    1.0000 </r>
       <r>  -11.6560    1.0000 </r>
       <r>  -11.6243    1.0000 </r>
       <r>  -11.2121    1.0000 </r>
       <r>  -11.2119    1.0000 </r>
       <r>  -10.9646    1.0000 </r>
       <r>  -10.9640    1.0000 </r>
       <r>  -10.7064    1.0000 </r>
       <r>  -10.6102    1.0000 </r>
       <r>  -10.5041    1.0000 </r>
       <r>  -10.5037    1.0000 </r>
       <r>  -10.1807    1.0000 </r>
       <r>  -10.1696    1.0000 </r>
       <r>  -10.1694    1.0000 </r>
       <r>  -10.1373    1.0000 </r>
       <r>  -10.1193    1.0000 </r>
       <r>  -10.0904    1.0000 </r>
       <r>  -10.0901    1.0000 </r>
       <r>  -10.0444    1.0000 </r>
       <r>  -10.0441    1.0000 </r>
       <r>   -9.9240    1.0000 </r>
       <r>   -9.9225    1.0000 </r>
       <r>   -9.9204    1.0000 </r>
       <r>   -9.4767    1.0000 </r>
       <r>   -9.1365    1.0000 </r>
       <r>   -9.1072    1.0000 </r>
       <r>   -9.1063    1.0000 </r>
       <r>   -9.0025    1.0000 </r>
       <r>   -9.0024    1.0000 </r>
       <r>   -8.8511    1.0000 </r>
       <r>   -8.8508    1.0000 </r>
       <r>   -8.7192    1.0000 </r>
       <r>   -8.6359    1.0000 </r>
       <r>   -8.3015    1.0000 </r>
       <r>   -8.3014    1.0000 </r>
       <r>   -8.1232    1.0000 </r>
       <r>   -7.9151    1.0000 </r>
       <r>   -7.9151    1.0000 </r>
       <r>   -7.8509    1.0000 </r>
       <r>   -7.8506    1.0000 </r>
       <r>   -7.8500    1.0000 </r>
       <r>   -7.7316    1.0000 </r>
       <r>   -7.7316    1.0000 </r>
       <r>   -7.7220    1.0000 </r>
       <r>   -7.7120    1.0000 </r>
       <r>   -7.7119    1.0000 </r>
       <r>   -7.6889    1.0000 </r>
       <r>   -7.5045    1.0000 </r>
       <r>   -7.5044    1.0000 </r>
       <r>   -7.3073    1.0000 </r>
       <r>   -7.2870    1.0000 </r>
       <r>   -7.2596    1.0000 </r>
       <r>   -7.2594    1.0000 </r>
       <r>   -7.2173    1.0000 </r>
       <r>   -7.2172    1.0000 </r>
       <r>   -7.0179    1.0000 </r>
       <r>   -6.8356    1.0000 </r>
       <r>   -6.8355    1.0000 </r>
       <r>   -6.7138    1.0000 </r>
       <r>   -6.7136    1.0000 </r>
       <r>   -6.5803    1.0000 </r>
       <r>   -6.5457    1.0000 </r>
       <r>   -6.5456    1.0000 </r>
       <r>   -6.4982    1.0000 </r>
       <r>   -6.4803    1.0000 </r>
       <r>   -6.4802    1.0000 </r>
       <r>   -6.2646    1.0000 </r>
       <r>   -6.2644    1.0000 </r>
       <r>   -6.2634    1.0000 </r>
       <r>   -5.9158    1.0000 </r>
       <r>   -5.4888    1.0000 </r>
       <r>   -5.4888    1.0000 </r>
       <r>   -3.4246    0.0000 </r>
       <r>   -3.4244    0.0000 </r>
       <r>   -3.4143    0.0000 </r>
       <r>   -3.2942    0.0000 </r>
       <r>   -3.2940    0.0000 </r>
       <r>   -3.2803    0.0000 </r>
       <r>   -2.2968    0.0000 </r>
       <r>   -2.2967    0.0000 </r>
       <r>   -1.9705    0.0000 </r>
       <r>   -1.9695    0.0000 </r>
       <r>   -1.9388    0.0000 </r>
       <r>   -1.8062    0.0000 </r>
       <r>   -1.6670    0.0000 </r>
       <r>   -1.6665    0.0000 </r>
       <r>   -1.5052    0.0000 </r>
       <r>   -1.5051    0.0000 </r>
       <r>   -1.1931    0.0000 </r>
       <r>   -1.1640    0.0000 </r>
       <r>   -1.1637    0.0000 </r>
       <r>   -1.0944    0.0000 </r>
       <r>   -0.5089    0.0000 </r>
       <r>   -0.3748    0.0000 </r>
       <r>   -0.3746    0.0000 </r>
       <r>   -0.1270    0.0000 </r>
       <r>   -0.0676    0.0000 </r>
       <r>   -0.0672    0.0000 </r>
       <r>    0.0034    0.0000 </r>
       <r>    0.0712    0.0000 </r>
       <r>    0.1994    0.0000 </r>
       <r>    0.1999    0.0000 </r>
       <r>    0.3963    0.0000 </r>
       <r>    0.3966    0.0000 </r>
       <r>    0.4515    0.0000 </r>
       <r>    0.5160    0.0000 </r>
       <r>    0.5164    0.0000 </r>
       <r>    0.7260    0.0000 </r>
       <r>    0.7655    0.0000 </r>
       <r>    0.7667    0.0000 </r>
       <r>    0.8585    0.0000 </r>
       <r>    0.8619    0.0000 </r>
       <r>    0.8776    0.0000 </r>
       <r>    0.9201    0.0000 </r>
       <r>    0.9332    0.0000 </r>
       <r>    1.0428    0.0000 </r>
       <r>    1.0459    0.0000 </r>
       <r>    1.0944    0.0000 </r>
       <r>    1.1240    0.0000 </r>
       <r>    1.2022    0.0000 </r>
       <r>    1.2061    0.0000 </r>
      </set>
      <set comment="kpoint 3">
       <r>  -30.8594    1.0000 </r>
       <r>  -30.8593    1.0000 </r>
       <r>  -30.8591    1.0000 </r>
       <r>  -30.8543    1.0000 </r>
       <r>  -30.8537    1.0000 </r>
       <r>  -30.8535    1.0000 </r>
       <r>  -26.4964    1.0000 </r>
       <r>  -26.4964    1.0000 </r>
       <r>  -26.4962    1.0000 </r>
       <r>  -26.4945    1.0000 </r>
       <r>  -26.4941    1.0000 </r>
       <r>  -26.4939    1.0000 </r>
       <r>  -22.9648    1.0000 </r>
       <r>  -22.8743    1.0000 </r>
       <r>  -22.8741    1.0000 </r>
       <r>  -22.2140    1.0000 </r>
       <r>  -21.7278    1.0000 </r>
       <r>  -21.4804    1.0000 </r>
       <r>  -21.4787    1.0000 </r>
       <r>  -21.0051    1.0000 </r>
       <r>  -20.7550    1.0000 </r>
       <r>  -20.7521    1.0000 </r>
       <r>  -20.7462    1.0000 </r>
       <r>  -20.7424    1.0000 </r>
       <r>  -20.7402    1.0000 </r>
       <r>  -19.9455    1.0000 </r>
       <r>  -19.6109    1.0000 </r>
       <r>  -19.6041    1.0000 </r>
       <r>  -18.8015    1.0000 </r>
       <r>  -18.7851    1.0000 </r>
       <r>  -18.7039    1.0000 </r>
       <r>  -18.4406    1.0000 </r>
       <r>  -18.4404    1.0000 </r>
       <r>  -18.4212    1.0000 </r>
       <r>  -18.2050    1.0000 </r>
       <r>  -18.2047    1.0000 </r>
       <r>  -17.6249    1.0000 </r>
       <r>  -17.5457    1.0000 </r>
       <r>  -17.5452    1.0000 </r>
       <r>  -17.5438    1.0000 </r>
       <r>  -17.3280    1.0000 </r>
       <r>  -17.3272    1.0000 </r>
       <r>  -16.3467    1.0000 </r>
       <r>  -16.3463    1.0000 </r>
       <r>  -16.0458    1.0000 </r>
       <r>  -15.4908    1.0000 </r>
       <r>  -15.4878    1.0000 </r>
       <r>  -15.0620    1.0000 </r>
       <r>  -14.9187    1.0000 </r>
       <r>  -14.9162    1.0000 </r>
       <r>  -14.8438    1.0000 </r>
       <r>  -14.5504    1.0000 </r>
       <r>  -14.5263    1.0000 </r>
       <r>  -14.5261    1.0000 </r>
       <r>  -14.4569    1.0000 </r>
       <r>  -14.4562    1.0000 </r>
       <r>  -13.9454    1.0000 </r>
       <r>  -13.9438    1.0000 </r>
       <r>  -13.8688    1.0000 </r>
       <r>  -13.6306    1.0000 </r>
       <r>  -13.5899    1.0000 </r>
       <r>  -13.5896    1.0000 </r>
       <r>  -13.5494    1.0000 </r>
       <r>  -13.5493    1.0000 </r>
       <r>  -13.1764    1.0000 </r>
       <r>  -13.1476    1.0000 </r>
       <r>  -13.0504    1.0000 </r>
       <r>  -13.0494    1.0000 </r>
       <r>  -12.9154    1.0000 </r>
       <r>  -12.8646    1.0000 </r>
       <r>  -12.8644    1.0000 </r>
       <r>  -12.7765    1.0000 </r>
       <r>  -12.7732    1.0000 </r>
       <r>  -12.7572    1.0000 </r>
       <r>  -12.6478    1.0000 </r>
       <r>  -12.6224    1.0000 </r>
       <r>  -12.6222    1.0000 </r>
       <r>  -12.5759    1.0000 </r>
       <r>  -12.4105    1.0000 </r>
       <r>  -12.3940    1.0000 </r>
       <r>  -12.3939    1.0000 </r>
       <r>  -12.1835    1.0000 </r>
       <r>  -11.8928    1.0000 </r>
       <r>  -11.8165    1.0000 </r>
       <r>  -11.8048    1.0000 </r>
       <r>  -11.7736    1.0000 </r>
       <r>  -11.7193    1.0000 </r>
       <r>  -11.7190    1.0000 </r>
       <r>  -11.6562    1.0000 </r>
       <r>  -11.6211    1.0000 </r>
       <r>  -11.2124    1.0000 </r>
       <r>  -11.2121    1.0000 </r>
       <r>  -10.9659    1.0000 </r>
       <r>  -10.9638    1.0000 </r>
       <r>  -10.7065    1.0000 </r>
       <r>  -10.6120    1.0000 </r>
       <r>  -10.5041    1.0000 </r>
       <r>  -10.5025    1.0000 </r>
       <r>  -10.1808    1.0000 </r>
       <r>  -10.1695    1.0000 </r>
       <r>  -10.1692    1.0000 </r>
       <r>  -10.1373    1.0000 </r>
       <r>  -10.1195    1.0000 </r>
       <r>  -10.0905    1.0000 </r>
       <r>  -10.0900    1.0000 </r>
       <r>  -10.0445    1.0000 </r>
       <r>  -10.0436    1.0000 </r>
       <r>   -9.9256    1.0000 </r>
       <r>   -9.9223    1.0000 </r>
       <r>   -9.9184    1.0000 </r>
       <r>   -9.4766    1.0000 </r>
       <r>   -9.1394    1.0000 </r>
       <r>   -9.1075    1.0000 </r>
       <r>   -9.1038    1.0000 </r>
       <r>   -9.0029    1.0000 </r>
       <r>   -9.0025    1.0000 </r>
       <r>   -8.8515    1.0000 </r>
       <r>   -8.8502    1.0000 </r>
       <r>   -8.7185    1.0000 </r>
       <r>   -8.6359    1.0000 </r>
       <r>   -8.3017    1.0000 </r>
       <r>   -8.3014    1.0000 </r>
       <r>   -8.1234    1.0000 </r>
       <r>   -7.9151    1.0000 </r>
       <r>   -7.9150    1.0000 </r>
       <r>   -7.8513    1.0000 </r>
       <r>   -7.8505    1.0000 </r>
       <r>   -7.8496    1.0000 </r>
       <r>   -7.7316    1.0000 </r>
       <r>   -7.7314    1.0000 </r>
       <r>   -7.7220    1.0000 </r>
       <r>   -7.7120    1.0000 </r>
       <r>   -7.7118    1.0000 </r>
       <r>   -7.6890    1.0000 </r>
       <r>   -7.5045    1.0000 </r>
       <r>   -7.5040    1.0000 </r>
       <r>   -7.3087    1.0000 </r>
       <r>   -7.2870    1.0000 </r>
       <r>   -7.2596    1.0000 </r>
       <r>   -7.2592    1.0000 </r>
       <r>   -7.2173    1.0000 </r>
       <r>   -7.2166    1.0000 </r>
       <r>   -7.0179    1.0000 </r>
       <r>   -6.8356    1.0000 </r>
       <r>   -6.8354    1.0000 </r>
       <r>   -6.7137    1.0000 </r>
       <r>   -6.7136    1.0000 </r>
       <r>   -6.5803    1.0000 </r>
       <r>   -6.5457    1.0000 </r>
       <r>   -6.5456    1.0000 </r>
       <r>   -6.4982    1.0000 </r>
       <r>   -6.4803    1.0000 </r>
       <r>   -6.4802    1.0000 </r>
       <r>   -6.2646    1.0000 </r>
       <r>   -6.2644    1.0000 </r>
       <r>   -6.2634    1.0000 </r>
       <r>   -5.9159    1.0000 </r>
       <r>   -5.4888    1.0000 </r>
       <r>   -5.4888    1.0000 </r>
       <r>   -3.4246    0.0000 </r>
       <r>   -3.4244    0.0000 </r>
       <r>   -3.4143    0.0000 </r>
       <r>   -3.2942    0.0000 </r>
       <r>   -3.2940    0.0000 </r>
       <r>   -3.2803    0.0000 </r>
       <r>   -2.2968    0.0000 </r>
       <r>   -2.2963    0.0000 </r>
       <r>   -1.9735    0.0000 </r>
       <r>   -1.9695    0.0000 </r>
       <r>   -1.9370    0.0000 </r>
       <r>   -1.8062    0.0000 </r>
       <r>   -1.6670    0.0000 </r>
       <r>   -1.6652    0.0000 </r>
       <r>   -1.5055    0.0000 </r>
       <r>   -1.5050    0.0000 </r>
       <r>   -1.1931    0.0000 </r>
       <r>   -1.1640    0.0000 </r>
       <r>   -1.1637    0.0000 </r>
       <r>   -1.0947    0.0000 </r>
       <r>   -0.5088    0.0000 </r>
       <r>   -0.3748    0.0000 </r>
       <r>   -0.3746    0.0000 </r>
       <r>   -0.1278    0.0000 </r>
       <r>   -0.0679    0.0000 </r>
       <r>   -0.0676    0.0000 </r>
       <r>    0.0036    0.0000 </r>
       <r>    0.0718    0.0000 </r>
       <r>    0.2007    0.0000 </r>
       <r>    0.2016    0.0000 </r>
       <r>    0.3958    0.0000 </r>
       <r>    0.3963    0.0000 </r>
       <r>    0.4499    0.0000 </r>
       <r>    0.5162    0.0000 </r>
       <r>    0.5184    0.0000 </r>
       <r>    0.7250    0.0000 </r>
       <r>    0.7606    0.0000 </r>
       <r>    0.7646    0.0000 </r>
       <r>    0.8527    0.0000 </r>
       <r>    0.8631    0.0000 </r>
       <r>    0.8786    0.0000 </r>
       <r>    0.9244    0.0000 </r>
       <r>    0.9419    0.0000 </r>
       <r>    1.0345    0.0000 </r>
       <r>    1.0456    0.0000 </r>
       <r>    1.1044    0.0000 </r>
       <r>    1.1257    0.0000 </r>
       <r>    1.1955    0.0000 </r>
       <r>    1.2041    0.0000 </r>
      </set>
      <set comment="kpoint 4">
       <r>  -30.8594    1.0000 </r>
       <r>  -30.8593    1.0000 </r>
       <r>  -30.8591    1.0000 </r>
       <r>  -30.8543    1.0000 </r>
       <r>  -30.8537    1.0000 </r>
       <r>  -30.8535    1.0000 </r>
       <r>  -26.4964    1.0000 </r>
       <r>  -26.4964    1.0000 </r>
       <r>  -26.4962    1.0000 </r>
       <r>  -26.4945    1.0000 </r>
       <r>  -26.4941    1.0000 </r>
       <r>  -26.4939    1.0000 </r>
       <r>  -22.9648    1.0000 </r>
       <r>  -22.8743    1.0000 </r>
       <r>  -22.8741    1.0000 </r>
       <r>  -22.2139    1.0000 </r>
       <r>  -21.7288    1.0000 </r>
       <r>  -21.4804    1.0000 </r>
       <r>  -21.4765    1.0000 </r>
       <r>  -21.0107    1.0000 </r>
       <r>  -20.7550    1.0000 </r>
       <r>  -20.7498    1.0000 </r>
       <r>  -20.7462    1.0000 </r>
[...]
       <r>   -29.7573     0.0000    12.0000 </r>
       <r>   -29.6396     0.0000    12.0000 </r>
       <r>   -29.5219     0.0000    12.0000 </r>
       <r>   -29.4042     0.0000    12.0000 </r>
       <r>   -29.2865     0.0000    12.0000 </r>
       <r>   -29.1688     0.0000    12.0000 </r>
       <r>   -29.0511     0.0000    12.0000 </r>
       <r>   -28.9334     0.0000    12.0000 </r>
       <r>   -28.8157     0.0000    12.0000 </r>
       <r>   -28.6980     0.0000    12.0000 </r>
       <r>   -28.5803     0.0000    12.0000 </r>
       <r>   -28.4626     0.0000    12.0000 </r>
       <r>   -28.3449     0.0000    12.0000 </r>
       <r>   -28.2272     0.0000    12.0000 </r>
       <r>   -28.1095     0.0000    12.0000 </r>
       <r>   -27.9918     0.0000    12.0000 </r>
       <r>   -27.8741     0.0000    12.0000 </r>
       <r>   -27.7564     0.0000    12.0000 </r>
       <r>   -27.6387     0.0000    12.0000 </r>
       <r>   -27.5210     0.0000    12.0000 </r>
       <r>   -27.4033     0.0000    12.0000 </r>
       <r>   -27.2856     0.0000    12.0000 </r>
       <r>   -27.1679     0.0000    12.0000 </r>
       <r>   -27.0502     0.0000    12.0000 </r>
       <r>   -26.9325     0.0000    12.0000 </r>
       <r>   -26.8148     0.0000    12.0000 </r>
       <r>   -26.6971     0.0000    12.0000 </r>
       <r>   -26.5794     0.0000    12.0000 </r>
       <r>   -26.4617   101.9545    24.0000 </r>
       <r>   -26.3440     0.0000    24.0000 </r>
       <r>   -26.2263     0.0000    24.0000 </r>
       <r>   -26.1086     0.0000    24.0000 </r>
       <r>   -25.9909     0.0000    24.0000 </r>
       <r>   -25.8732     0.0000    24.0000 </r>
       <r>   -25.7555     0.0000    24.0000 </r>
       <r>   -25.6378     0.0000    24.0000 </r>
       <r>   -25.5201     0.0000    24.0000 </r>
       <r>   -25.4024     0.0000    24.0000 </r>
       <r>   -25.2847     0.0000    24.0000 </r>
       <r>   -25.1670     0.0000    24.0000 </r>
       <r>   -25.0493     0.0000    24.0000 </r>
       <r>   -24.9316     0.0000    24.0000 </r>
       <r>   -24.8139     0.0000    24.0000 </r>
       <r>   -24.6962     0.0000    24.0000 </r>
       <r>   -24.5785     0.0000    24.0000 </r>
       <r>   -24.4608     0.0000    24.0000 </r>
       <r>   -24.3431     0.0000    24.0000 </r>
       <r>   -24.2254     0.0000    24.0000 </r>
       <r>   -24.1077     0.0000    24.0000 </r>
       <r>   -23.9900     0.0000    24.0000 </r>
       <r>   -23.8723     0.0000    24.0000 </r>
       <r>   -23.7546     0.0000    24.0000 </r>
       <r>   -23.6369     0.0000    24.0000 </r>
       <r>   -23.5192     0.0000    24.0000 </r>
       <r>   -23.4015     0.0000    24.0000 </r>
       <r>   -23.2838     0.0000    24.0000 </r>
       <r>   -23.1661     0.0000    24.0000 </r>
       <r>   -23.0484     0.0000    24.0000 </r>
       <r>   -22.9307    16.9924    26.0000 </r>
       <r>   -22.8130    33.9849    30.0000 </r>
       <r>   -22.6953     0.0000    30.0000 </r>
       <r>   -22.5776     0.0000    30.0000 </r>
       <r>   -22.4599     0.0000    30.0000 </r>
       <r>   -22.3422     0.0000    30.0000 </r>
       <r>   -22.2245     0.7851    30.0924 </r>
       <r>   -22.1068     0.0000    32.0000 </r>
       <r>   -21.9891     0.0000    32.0000 </r>
       <r>   -21.8714     0.0000    32.0000 </r>
       <r>   -21.7537     4.4937    32.5289 </r>
       <r>   -21.6360     0.0000    34.0000 </r>
       <r>   -21.5183     0.0000    34.0000 </r>
       <r>   -21.4006    29.1739    37.4338 </r>
       <r>   -21.2829     0.0000    38.0000 </r>
       <r>   -21.1652     0.1668    38.0196 </r>
       <r>   -21.0475     4.1938    39.5269 </r>
       <r>   -20.9298     1.6992    40.0000 </r>
       <r>   -20.8121     0.0000    40.0000 </r>
       <r>   -20.6944    72.1798    48.4955 </r>
       <r>   -20.5767     9.7993    49.8534 </r>
       <r>   -20.4590     0.0000    50.0000 </r>
       <r>   -20.3413     0.0000    50.0000 </r>
       <r>   -20.2236     0.0000    50.0000 </r>
       <r>   -20.1059     8.6731    51.0208 </r>
       <r>   -19.9882     3.0236    51.5892 </r>
       <r>   -19.8705     1.6992    52.0000 </r>
       <r>   -19.7528     0.0000    52.0000 </r>
       <r>   -19.6351     0.0055    52.0006 </r>
       <r>   -19.5175     2.9706    54.5496 </r>
       <r>   -19.3998     2.6192    54.9749 </r>
       <r>   -19.2821     4.2481    56.0000 </r>
       <r>   -19.1644     0.0000    56.0000 </r>
       <r>   -19.0467     8.2217    56.9677 </r>
       <r>   -18.9290     2.3327    57.4079 </r>
       <r>   -18.8113     2.5702    57.8025 </r>
       <r>   -18.6936     1.7677    60.2081 </r>
       <r>   -18.5759     4.3421    60.8777 </r>
       <r>   -18.4582     0.2552    62.0300 </r>
       <r>   -18.3405     0.0000    68.0000 </r>
       <r>   -18.2228     0.5964    68.0702 </r>
       <r>   -18.1051     0.0000    72.0000 </r>
       <r>   -17.9874     0.0000    72.0000 </r>
       <r>   -17.8697     0.0000    72.0000 </r>
       <r>   -17.7520     0.0000    72.0000 </r>
       <r>   -17.6343     0.3320    72.0391 </r>
       <r>   -17.5166    50.8783    79.9883 </r>
       <r>   -17.3989     0.0000    80.0000 </r>
       <r>   -17.2812    33.9849    84.0000 </r>
       <r>   -17.1635     0.0000    84.0000 </r>
       <r>   -17.0458     0.0000    84.0000 </r>
       <r>   -16.9281     0.0000    84.0000 </r>
       <r>   -16.8104     0.0000    84.0000 </r>
       <r>   -16.6927     0.0000    84.0000 </r>
       <r>   -16.5750     0.0000    84.0000 </r>
       <r>   -16.4573     0.0000    84.0000 </r>
       <r>   -16.3396    31.0790    87.6580 </r>
       <r>   -16.2219     0.0000    88.0000 </r>
       <r>   -16.1042     0.0000    88.0000 </r>
       <r>   -15.9865     9.3458    90.0000 </r>
       <r>   -15.8688     0.0000    90.0000 </r>
       <r>   -15.7511     0.0000    90.0000 </r>
       <r>   -15.6334     0.0000    90.0000 </r>
       <r>   -15.5157     0.0033    90.0004 </r>
       <r>   -15.3980     4.2931    92.8053 </r>
       <r>   -15.2803     8.2130    94.0000 </r>
       <r>   -15.1626     0.0000    94.0000 </r>
       <r>   -15.0449    23.2611    96.7378 </r>
       <r>   -14.9272     5.3108    97.7584 </r>
       <r>   -14.8095    16.9924   102.0000 </r>
       <r>   -14.6918     0.0000   102.0000 </r>
       <r>   -14.5741     1.2600   102.1483 </r>
       <r>   -14.4564    14.8314   108.3790 </r>
       <r>   -14.3387     4.5313   112.0000 </r>
       <r>   -14.2210     0.0000   112.0000 </r>
       <r>   -14.1033     0.0000   112.0000 </r>
       <r>   -13.9856     0.8960   112.1055 </r>
       <r>   -13.8679    20.4020   116.1680 </r>
       <r>   -13.7502    10.4787   118.0000 </r>
       <r>   -13.6325     2.1253   118.2501 </r>
       <r>   -13.5148    44.1801   128.0000 </r>
       <r>   -13.3971     0.0000   128.0000 </r>
       <r>   -13.2794     0.0000   128.0000 </r>
       <r>   -13.1617    10.4915   129.2348 </r>
       <r>   -13.0440    16.5476   133.9476 </r>
       <r>   -12.9263    10.8266   136.1076 </r>
       <r>   -12.8086    42.4465   143.4293 </r>
       <r>   -12.6909    16.9924   148.0000 </r>
       <r>   -12.5732    65.9301   155.7599 </r>
       <r>   -12.4555     0.0000   156.0000 </r>
       <r>   -12.3378    50.9773   162.0000 </r>
       <r>   -12.2201     0.0000   162.0000 </r>
       <r>   -12.1024     0.0000   164.0000 </r>
       <r>   -11.9847    12.0742   165.4211 </r>
       <r>   -11.8670     3.3665   165.9962 </r>
       <r>   -11.7493    39.7993   170.6843 </r>
       <r>   -11.6316    21.1850   178.0268 </r>
       <r>   -11.5139     2.7467   178.6899 </r>
       <r>   -11.3962     5.5527   179.4535 </r>
       <r>   -11.2785     0.8838   180.1040 </r>
       <r>   -11.1608    24.3558   184.0000 </r>
       <r>   -11.0431     6.0536   184.7125 </r>
       <r>   -10.9254    22.6559   187.9999 </r>
       <r>   -10.8077     0.0000   188.0000 </r>
       <r>   -10.6900    16.9738   189.9978 </r>
       <r>   -10.5723     6.2306   192.0000 </r>
       <r>   -10.4546    33.5311   195.9466 </r>
       <r>   -10.3369     0.0000   196.0000 </r>
       <r>   -10.2192     0.0000   196.0000 </r>
       <r>   -10.1015    77.1877   206.7516 </r>
       <r>    -9.9838    33.9849   214.0000 </r>
       <r>    -9.8661    50.9303   219.9945 </r>
       <r>    -9.7484     0.0000   220.0000 </r>
       <r>    -9.6307     0.0000   220.0000 </r>
       <r>    -9.5130     0.0000   220.0000 </r>
       <r>    -9.3953    13.3107   222.0000 </r>
       <r>    -9.2776     0.0000   222.0000 </r>
       <r>    -9.1599    13.3736   223.5741 </r>
       <r>    -9.0422    25.4743   227.9316 </r>
       <r>    -8.9245     7.3634   232.0000 </r>
       <r>    -8.8068    32.8311   235.8642 </r>
       <r>    -8.6891    11.7467   237.3826 </r>
       <r>    -8.5714    16.9924   240.0000 </r>
       <r>    -8.4537     0.0000   240.0000 </r>
       <r>    -8.3360     0.0023   240.0003 </r>
       <r>    -8.2183     0.0000   244.0000 </r>
       <r>    -8.1006    16.9902   245.9997 </r>
       <r>    -7.9829     0.0000   246.0000 </r>
       <r>    -7.8652    35.4535   250.1729 </r>
       <r>    -7.7475     0.1817   256.0214 </r>
       <r>    -7.6298    21.2406   268.0000 </r>
       <r>    -7.5121     3.1187   268.3671 </r>
       <r>    -7.3944     2.8400   272.0009 </r>
       <r>    -7.2767    23.0048   275.8410 </r>
       <r>    -7.1590    33.9849   284.0000 </r>
       <r>    -7.0413     0.0077   284.0009 </r>
       <r>    -6.9236     0.0000   286.0000 </r>
       <r>    -6.8059    33.9798   289.9994 </r>
       <r>    -6.6882    33.9759   293.9989 </r>
       <r>    -6.5705    15.4042   295.8131 </r>
       <r>    -6.4528    50.9759   305.9998 </r>
       <r>    -6.3351     0.0000   306.0000 </r>
       <r>    -6.2174    50.9773   312.0000 </r>
       <r>    -6.0997     0.0000   312.0000 </r>
       <r>    -5.9820     0.0000   312.0000 </r>
       <r>    -5.8643    16.9924   314.0000 </r>
       <r>    -5.7466     0.0000   314.0000 </r>
       <r>    -5.6289     0.0000   314.0000 </r>
       <r>    -5.5112     0.0198   314.0023 </r>
       <r>    -5.3935     0.0000   318.0000 </r>
       <r>    -5.2758     0.0000   318.0000 </r>
       <r>    -5.1581     0.0000   318.0000 </r>
       <r>    -5.0404     0.0000   318.0000 </r>
       <r>    -4.9227     0.0000   318.0000 </r>
       <r>    -4.8050     0.0000   318.0000 </r>
       <r>    -4.6873     0.0000   318.0000 </r>
       <r>    -4.5696     0.0000   318.0000 </r>
       <r>    -4.4519     0.0000   318.0000 </r>
       <r>    -4.3342     0.0000   318.0000 </r>
       <r>    -4.2165     0.0000   318.0000 </r>
       <r>    -4.0988     0.0000   318.0000 </r>
       <r>    -3.9811     0.0000   318.0000 </r>
       <r>    -3.8634     0.0000   318.0000 </r>
       <r>    -3.7457     0.0000   318.0000 </r>
       <r>    -3.6280     0.0000   318.0000 </r>
       <r>    -3.5103     0.0000   318.0000 </r>
       <r>    -3.3926    50.9581   323.9977 </r>
       <r>    -3.2749    47.2989   329.5671 </r>
       <r>    -3.1572     0.0000   330.0000 </r>
       <r>    -3.0395     0.0000   330.0000 </r>
       <r>    -2.9218     0.0000   330.0000 </r>
       <r>    -2.8041     0.0000   330.0000 </r>
       <r>    -2.6864     0.0000   330.0000 </r>
       <r>    -2.5687     0.0000   330.0000 </r>
       <r>    -2.4510     0.0000   330.0000 </r>
       <r>    -2.3333     0.0000   330.0000 </r>
       <r>    -2.2156    15.0100   334.0000 </r>
       <r>    -2.0979     0.0000   334.0000 </r>
       <r>    -1.9802    16.5257   335.9451 </r>
       <r>    -1.8625    16.9924   340.0000 </r>
       <r>    -1.7448    16.9924   342.0000 </r>
       <r>    -1.6271    22.7966   344.6831 </r>
       <r>    -1.5094    22.1311   348.0048 </r>
       <r>    -1.3917     0.0000   350.0000 </r>
       <r>    -1.2741     0.0000   350.0000 </r>
       <r>    -1.1564    46.8935   355.5193 </r>
       <r>    -1.0387    16.9924   358.0000 </r>
       <r>    -0.9210     0.0000   358.0000 </r>
       <r>    -0.8033     0.0000   358.0000 </r>
       <r>    -0.6856     0.0000   358.0000 </r>
       <r>    -0.5679     0.0000   358.0000 </r>
       <r>    -0.4502    16.9924   360.0000 </r>
       <r>    -0.3325    33.9849   364.0000 </r>
       <r>    -0.2148     0.0000   364.0000 </r>
       <r>    -0.0971    18.0707   366.1269 </r>
       <r>     0.0206    16.2158   371.9086 </r>
       <r>     0.1383    16.9924   374.0000 </r>
       <r>     0.2560    13.4078   375.5781 </r>
       <r>     0.3737    26.4883   379.8510 </r>
       <r>     0.4914    25.0494   384.9483 </r>
       <r>     0.6091    17.5447   389.0650 </r>
       <r>     0.7268    13.4327   391.2144 </r>
       <r>     0.8445    28.0992   395.6406 </r>
       <r>     0.9622    37.8890   402.0928 </r>
       <r>     1.0799    38.3921   408.5187 </r>
       <r>     1.1976    39.8772   414.0602 </r>
       <r>     1.3153     2.5489   416.0000 </r>
       <r>     1.4330     0.0000   416.0000 </r>
       <r>     1.5507     0.0000   416.0000 </r>
       <r>     1.6684     0.0000   416.0000 </r>
       <r>     1.7861     0.0000   416.0000 </r>
       <r>     1.9038     0.0000   416.0000 </r>
       <r>     2.0215     0.0000   416.0000 </r>
       <r>     2.1392     0.0000   416.0000 </r>
       <r>     2.2569     0.0000   416.0000 </r>
       <r>     2.3746     0.0000   416.0000 </r>
       <r>     2.4923     0.0000   416.0000 </r>
       <r>     2.6100     0.0000   416.0000 </r>
       <r>     2.7277     0.0000   416.0000 </r>
       <r>     2.8454     0.0000   416.0000 </r>
      </set>
     </set>
    </array>
   </total>
  </dos>
 </calculation>
 <structure name="finalpos" >
  <crystal>
   <varray name="basis" >
    <v>      22.42272823       0.00000000       0.00000000 </v>
    <v>     -11.21136411      19.41865226       0.00000000 </v>
    <v>       0.00000000       0.00000000      20.00000000 </v>
   </varray>
   <i name="volume">   8708.38324529 </i>
   <varray name="rec_basis" >
    <v>       0.04459761       0.02574844       0.00000000 </v>
    <v>      -0.00000000       0.05149688       0.00000000 </v>
    <v>       0.00000000       0.00000000       0.05000000 </v>
   </varray>
  </crystal>
  <varray name="positions" >
   <v>       0.48080823       0.52028589       0.49487063 </v>
   <v>       0.42416271       0.49986358       0.45237781 </v>
   <v>       0.38803164       0.53539024       0.45262840 </v>
   <v>       0.46537915       0.61307026       0.53646094 </v>
   <v>       0.50101393       0.57703887       0.53715216 </v>
   <v>       0.40816325       0.59269730       0.49444471 </v>
   <v>       0.36987433       0.63060453       0.49431328 </v>
   <v>       0.40516166       0.70281356       0.49430429 </v>
   <v>       0.29765190       0.59483834       0.49430429 </v>
   <v>       0.36939547       0.73926980       0.49431328 </v>
   <v>       0.29718644       0.70234810       0.49430429 </v>
   <v>       0.26073020       0.63012567       0.49431328 </v>
   <v>       0.63072262       0.36969325       0.49365733 </v>
   <v>       0.59472205       0.29756818       0.49362393 </v>
   <v>       0.63030675       0.26102937       0.49365733 </v>
   <v>       0.70243182       0.29715387       0.49362393 </v>
   <v>       0.73897063       0.36927738       0.49365733 </v>
   <v>       0.70284613       0.40527795       0.49362393 </v>
   <v>       0.03947766       0.51919177       0.49487063 </v>
   <v>       0.07570088       0.57583729       0.45237781 </v>
   <v>       0.14735860       0.61196836       0.45262840 </v>
   <v>       0.96317016       0.48095888       0.49479557 </v>
   <v>       0.81549485       0.40733662       0.49400972 </v>
   <v>       0.85253158       0.40851855       0.43726171 </v>
   <v>       0.92419462       0.44380396       0.43903495 </v>
   <v>       0.47971411       0.96052234       0.49487063 </v>
   <v>       0.50013642       0.92429912       0.45237781 </v>
   <v>       0.46460976       0.85264140       0.45262840 </v>
   <v>       0.51778872       0.03682984       0.49479557 </v>
   <v>       0.59184176       0.18450515       0.49400972 </v>
   <v>       0.55598696       0.14746842       0.43726171 </v>
   <v>       0.51960934       0.07580538       0.43903495 </v>
   <v>       0.51904112       0.48221128       0.49479557 </v>
   <v>       0.59266338       0.40815824       0.49400972 </v>
   <v>       0.59148145       0.44401304       0.43726171 </v>
   <v>       0.55619604       0.48039066       0.43903495 </v>
   <v>       0.18453405       0.59183675       0.49444471 </v>
   <v>       0.14769110       0.53462085       0.53646094 </v>
   <v>       0.07602493       0.49898607       0.53715216 </v>
   <v>       0.92369264       0.47892725       0.55020559 </v>
   <v>       0.85199892       0.44274974       0.55116968 </v>
   <v>       0.40730270       0.81546595       0.49444471 </v>
   <v>       0.38692974       0.85230890       0.53646094 </v>
   <v>       0.42296113       0.92397507       0.53715216 </v>
   <v>       0.55523461       0.07630736       0.55020559 </v>
   <v>       0.59075081       0.14800108       0.55116968 </v>
   <v>       0.52107275       0.44476539       0.55020559 </v>
   <v>       0.55725026       0.40924919       0.55116968 </v>
   <v>       0.40801937       0.45560788       0.41942267 </v>
   <v>       0.54519910       0.59339875       0.57025076 </v>
   <v>       0.34424840       0.51930622       0.41906725 </v>
   <v>       0.48132743       0.65698126       0.56981827 </v>
   <v>       0.26973879       0.53863706       0.49431744 </v>
   <v>       0.46136294       0.73110172       0.49431744 </v>
   <v>       0.26889828       0.73026121       0.49431744 </v>
   <v>       0.73037425       0.26889532       0.49367059 </v>
   <v>       0.73110468       0.46147893       0.49367059 </v>
   <v>       0.53852107       0.26962575       0.49367059 </v>
   <v>       0.04758851       0.59198063       0.41942267 </v>
   <v>       0.17505782       0.65575160       0.41906725 </v>
   <v>       0.82613048       0.38218130       0.39149138 </v>
   <v>       0.54439212       0.95241149       0.41942267 </v>
   <v>       0.48069378       0.82494218       0.41906725 </v>
   <v>       0.55605082       0.17386952       0.39149138 </v>
   <v>       0.61781870       0.44394918       0.39149138 </v>
   <v>       0.82509240       0.44251030       0.59663133 </v>
   <v>       0.17565384       0.51867257       0.56981827 </v>
   <v>       0.04819965       0.45480090       0.57025076 </v>
   <v>       0.61741789       0.17490760       0.59663133 </v>
   <v>       0.34301874       0.82434616       0.56981827 </v>
   <v>       0.40660125       0.95180035       0.57025076 </v>
   <v>       0.55748970       0.38258211       0.59663133 </v>
   <v>       0.00287472       0.42136177       0.38545915 </v>
   <v>       0.94092757       0.45225014       0.32426816 </v>
   <v>       0.41848705       0.99712528       0.38545915 </v>
   <v>       0.51132257       0.05907243       0.32426816 </v>
   <v>       0.57863823       0.58151295       0.38545915 </v>
   <v>       0.54774986       0.48867743       0.32426816 </v>
   <v>       0.93894807       0.48652685       0.66518502 </v>
   <v>       0.00243161       0.57946782       0.60471574 </v>
   <v>       0.54757878       0.06105193       0.66518502 </v>
   <v>       0.57703620       0.99756839       0.60471574 </v>
   <v>       0.51347315       0.45242122       0.66518502 </v>
   <v>       0.42053218       0.42296380       0.60471574 </v>
   <v>       0.95931344       0.43919819       0.37812968 </v>
   <v>       0.47988476       0.04068656       0.37812968 </v>
   <v>       0.56080181       0.52011524       0.37812968 </v>
   <v>       0.95828123       0.51820261       0.61153080 </v>
   <v>       0.55992138       0.04171877       0.61153080 </v>
   <v>       0.48179739       0.44007862       0.61153080 </v>
  </varray>
 </structure>
</modeling>
