<?xml version="1.0" encoding="ISO-8859-1"?>
<modeling>
 <generator>
  <i name="program" type="string">vasp </i>
  <i name="version" type="string">5.4.4.18Apr17-6-g9f103f2a35  </i>
  <i name="subversion" type="string">(build Jun 07 2020 16:50:00) complex            parallel </i>
  <i name="platform" type="string">LinuxIFC </i>
  <i name="date" type="string">2023 02 19 </i>
  <i name="time" type="string">02:04:30 </i>
 </generator>
 <incar>
  <i type="string" name="SYSTEM">Simulation for cell shape cell volume r</i>
  <i type="int" name="ISTART">     1</i>
  <i type="string" name="PREC">high</i>
  <i type="string" name="ALGO">48</i>
  <i type="int" name="ICHARG">    11</i>
  <i type="int" name="NELM">   200</i>
  <i type="int" name="IBRION">    -1</i>
  <i name="EDIFF">      0.00001000</i>
  <i name="EDIFFG">     -0.01000000</i>
  <i type="int" name="NSW">     0</i>
  <i type="int" name="ISIF">     2</i>
  <i name="ENCUT">    500.00000000</i>
  <i name="POTIM">      0.30000000</i>
  <i type="string" name="LREAL">A</i>
  <i type="int" name="ISMEAR">     0</i>
  <i name="SIGMA">      0.01000000</i>
  <i type="int" name="NWRITE">     0</i>
  <i type="logical" name="LWAVE"> F  </i>
  <i type="logical" name="LCHARG"> F  </i>
  <v type="int" name="KPOINT_BSE">    -1     0     0     0</v>
  <i type="int" name="NELM">   200</i>
  <i type="string" name="GGA">PE</i>
 </incar>
 <structure name="primitive_cell" >
  <crystal>
   <varray name="basis" >
    <v>      33.98673980       0.01574315       0.00000000 </v>
    <v>      -0.14375179      33.90331305       0.00000000 </v>
    <v>       0.00000000       0.00000000      20.00000000 </v>
   </varray>
   <i name="volume">  23045.30684594 </i>
   <varray name="rec_basis" >
    <v>       0.02942318       0.00012476       0.00000000 </v>
    <v>      -0.00001366       0.02949558       0.00000000 </v>
    <v>       0.00000000       0.00000000       0.05000000 </v>
   </varray>
  </crystal>
  <varray name="positions" >
   <v>       0.00621756      -0.46611571       0.48438938 </v>
   <v>       0.03377333      -0.49377492       0.48382529 </v>
   <v>      -0.02906441      -0.47301417      -0.48658706 </v>
   <v>       0.02667167       0.47041491      -0.48891003 </v>
   <v>      -0.03673081       0.49142239      -0.45249924 </v>
   <v>      -0.05908910      -0.44169423      -0.49203517 </v>
   <v>      -0.01780855      -0.39375482       0.49301684 </v>
   <v>      -0.00848040       0.46235684      -0.45433800 </v>
   <v>      -0.04869594      -0.40212276       0.49686988 </v>
   <v>      -0.06380349       0.48729746      -0.42407547 </v>
   <v>       0.05794159       0.44050143      -0.49520978 </v>
   <v>      -0.09902205      -0.45200125      -0.48732011 </v>
   <v>       0.10468293       0.48283307      -0.48838671 </v>
   <v>      -0.01251424       0.43447643      -0.42795785 </v>
   <v>      -0.10719863      -0.48298020      -0.48226818 </v>
   <v>       0.09765978       0.45153138      -0.49249191 </v>
   <v>      -0.07807127      -0.37335322       0.49034532 </v>
   <v>       0.04810106       0.40063436       0.49669389 </v>
   <v>       0.01715367       0.39203535       0.49435483 </v>
   <v>      -0.12863578      -0.42357655      -0.49216574 </v>
   <v>      -0.11776376      -0.38424531       0.49634605 </v>
   <v>      -0.03373957      -0.31796838      -0.49575555 </v>
   <v>      -0.06816445      -0.33131910       0.47897185 </v>
   <v>       0.12733355       0.42295053      -0.49547768 </v>
   <v>       0.16046457       0.48901592      -0.43452147 </v>
   <v>       0.07742545       0.37178534       0.49138464 </v>
   <v>      -0.16207279      -0.48832102      -0.42763324 </v>
   <v>      -0.14100779      -0.36227285       0.49335581 </v>
   <v>      -0.17053809      -0.43475482      -0.48607956 </v>
   <v>       0.11700508       0.38312166       0.49622903 </v>
   <v>      -0.02501527      -0.27977313      -0.49749269 </v>
   <v>       0.18154453       0.46955897      -0.45882855 </v>
   <v>      -0.09357639      -0.30620192       0.44347243 </v>
   <v>       0.16924883       0.43440195      -0.48993400 </v>
   <v>      -0.18301389      -0.46941159      -0.45350469 </v>
   <v>       0.01247125       0.34000257       0.42609007 </v>
   <v>      -0.11930681      -0.31792822       0.41753740 </v>
   <v>      -0.19688739      -0.40941599       0.48729188 </v>
   <v>       0.06654140       0.32989597       0.48189377 </v>
   <v>       0.03152467       0.31829059       0.44979429 </v>
   <v>       0.13999072       0.36091609       0.49333287 </v>
   <v>      -0.05036466      -0.25365696       0.47515150 </v>
   <v>      -0.08439022      -0.26654589       0.44134879 </v>
   <v>       0.22127412       0.47815706      -0.45832410 </v>
   <v>       0.19559335       0.40861623       0.48479120 </v>
   <v>      -0.22269961      -0.47817644      -0.45334075 </v>
   <v>       0.23243196      -0.49542121      -0.43356208 </v>
   <v>       0.02167156      -0.21999744       0.48766003 </v>
   <v>      -0.23497565      -0.41772892       0.48764239 </v>
   <v>       0.09233763       0.30287155      -0.49495415 </v>
   <v>      -0.23397742       0.49579698      -0.42753732 </v>
   <v>      -0.10257579      -0.24586220       0.41341319 </v>
   <v>       0.24702806       0.45130032      -0.48903201 </v>
   <v>      -0.24840264      -0.45185683      -0.48551312 </v>
   <v>       0.23367162       0.41685149       0.48527616 </v>
   <v>       0.02266930       0.27853585       0.44727755 </v>
   <v>      -0.04093540      -0.21129790       0.48326423 </v>
   <v>      -0.00181104      -0.19820582       0.49008602 </v>
   <v>      -0.00361982       0.26791661       0.42159242 </v>
   <v>       0.28367000      -0.47780283      -0.49617103 </v>
   <v>       0.08381033       0.26476610      -0.49726032 </v>
   <v>       0.04915415       0.25203472       0.47708566 </v>
   <v>       0.07836273      -0.18342023       0.44447002 </v>
   <v>      -0.07183872      -0.18396128       0.48721010 </v>
   <v>      -0.10222086      -0.19432047       0.48391192 </v>
   <v>       0.28967993       0.45869363      -0.49572266 </v>
   <v>      -0.28494063       0.47704605      -0.49254890 </v>
   <v>      -0.29103904      -0.45941492      -0.49203166 </v>
   <v>       0.30411137       0.49750833      -0.49905231 </v>
   <v>       0.00633005      -0.15819486      -0.49849353 </v>
   <v>      -0.30542991      -0.49828139      -0.49529547 </v>
   <v>       0.07973974      -0.15579241       0.47235919 </v>
   <v>      -0.02222203       0.21623572       0.48385517 </v>
   <v>       0.31981354      -0.42411407      -0.44964118 </v>
   <v>      -0.30538680      -0.39770664      -0.49571193 </v>
   <v>       0.04109478       0.20930287       0.48277266 </v>
   <v>      -0.31725233      -0.42760172      -0.49785315 </v>
   <v>       0.04659384      -0.14133534      -0.49369948 </v>
   <v>       0.31581024       0.42684532       0.49804420 </v>
   <v>       0.30383441       0.39698778      -0.49996030 </v>
   <v>      -0.06416681      -0.14399909       0.49945886 </v>
   <v>      -0.02506475      -0.13159604      -0.49302343 </v>
   <v>       0.00213770       0.19538780       0.48621588 </v>
   <v>       0.34416454      -0.49520959       0.48983604 </v>
   <v>       0.34700806      -0.42228443      -0.47849022 </v>
   <v>       0.11369686      -0.13286022       0.47238262 </v>
   <v>      -0.32318762       0.42357360      -0.44280529 </v>
   <v>       0.13974889      -0.14195649       0.44457937 </v>
   <v>       0.10242450       0.19405433       0.48587764 </v>
   <v>      -0.34550902       0.49442127       0.49371003 </v>
   <v>       0.36133765      -0.45511592       0.48636144 </v>
   <v>       0.07246151       0.18252427       0.48815092 </v>
   <v>      -0.13855496      -0.14015553       0.43692542 </v>
   <v>       0.04907666      -0.10820689      -0.45602697 </v>
   <v>       0.35591513       0.43375322       0.48717985 </v>
   <v>      -0.35736153      -0.43456632       0.49164706 </v>
   <v>      -0.07608159       0.17815748       0.43312455 </v>
   <v>      -0.01883345      -0.10063282      -0.48302420 </v>
   <v>      -0.09531169      -0.11369542      -0.49621218 </v>
   <v>       0.36965021       0.47271934       0.48239115 </v>
   <v>       0.36056707      -0.36221900      -0.45000309 </v>
   <v>       0.36954151      -0.38809074      -0.47853153 </v>
   <v>      -0.34983728       0.42180146      -0.47310917 </v>
   <v>      -0.13064097      -0.11457675       0.46727545 </v>
   <v>      -0.37101103      -0.47352753       0.48655419 </v>
   <v>      -0.36303454       0.45447707       0.49013086 </v>
   <v>      -0.00564934       0.15527565       0.49688708 </v>
   <v>       0.11279441      -0.09657932      -0.49372709 </v>
   <v>      -0.36121465      -0.35973238      -0.44590017 </v>
   <v>       0.08128245      -0.08643330      -0.45603081 </v>
   <v>       0.39414688      -0.45231050       0.44821749 </v>
   <v>      -0.07811071       0.15149991       0.46352169 </v>
   <v>       0.06499564       0.14236386       0.49845714 </v>
   <v>      -0.08653368      -0.08281349      -0.45578703 </v>
   <v>       0.35856578       0.35794791      -0.45360539 </v>
   <v>      -0.04568098       0.13817352      -0.49938014 </v>
   <v>       0.40073733       0.47819145       0.47294271 </v>
   <v>      -0.38737075      -0.40315771       0.48721352 </v>
   <v>       0.38566289       0.40210274       0.48196863 </v>
   <v>       0.02595282       0.12922735      -0.49638537 </v>
   <v>      -0.38681903      -0.36797359      -0.47577161 </v>
   <v>       0.40540814      -0.38859495       0.48659842 </v>
   <v>      -0.37294234       0.38799748      -0.47336889 </v>
   <v>       0.19499859      -0.10273540       0.48975870 </v>
   <v>      -0.40211547      -0.47899589       0.47726571 </v>
   <v>      -0.39529943       0.45185004       0.45060314 </v>
   <v>      -0.36502296       0.36241990      -0.44317683 </v>
   <v>       0.41567282      -0.41992954       0.44851822 </v>
   <v>       0.38446480       0.36633590      -0.48261102 </v>
   <v>      -0.15407251      -0.08112668       0.46776557 </v>
   <v>       0.14015998       0.13825361       0.43801846 </v>
   <v>      -0.11191890       0.12844490       0.46347719 </v>
   <v>       0.39771393      -0.30679688      -0.49493822 </v>
   <v>      -0.13730982       0.13644428       0.43302804 </v>
   <v>       0.14344321      -0.06542381      -0.49843359 </v>
   <v>      -0.41807598      -0.41220573       0.44685505 </v>
   <v>       0.41664448       0.41119337       0.44217623 </v>
   <v>       0.18355254      -0.07274969       0.49149441 </v>
   <v>      -0.18093867      -0.07961533       0.43801157 </v>
   <v>       0.09592443       0.11183500      -0.49705764 </v>
   <v>      -0.04867838       0.10605710      -0.45935343 </v>
   <v>      -0.10866878      -0.05098281      -0.45564337 </v>
   <v>       0.02009694       0.09809978      -0.48728067 </v>
   <v>      -0.40804478       0.38850093       0.48952016 </v>
   <v>      -0.41721857       0.41971082       0.45027236 </v>
   <v>       0.13148500       0.11246825       0.46722602 </v>
   <v>      -0.14079945      -0.04838476      -0.49550245 </v>
   <v>       0.43596568      -0.35749064       0.49110693 </v>
   <v>      -0.42076384      -0.34533166      -0.47524141 </v>
   <v>       0.42784568      -0.31762489      -0.49743562 </v>
   <v>       0.09950189      -0.02046007      -0.48476642 </v>
   <v>      -0.11157613       0.09325460      -0.49943369 </v>
   <v>       0.41805786       0.34314317      -0.48247435 </v>
   <v>       0.13052777      -0.02626740      -0.49377931 </v>
   <v>      -0.42269644      -0.31874691      -0.44468236 </v>
   <v>      -0.08078346       0.08415583      -0.45941077 </v>
   <v>       0.08616243       0.08074413      -0.45781314 </v>
   <v>       0.26582924      -0.08329926      -0.49352320 </v>
   <v>      -0.45020394      -0.39062333       0.44707053 </v>
   <v>      -0.39955266       0.30804539      -0.49186852 </v>
   <v>       0.44849651       0.38918041       0.44233234 </v>
   <v>       0.41940041       0.31595217      -0.45339476 </v>
   <v>       0.41608444      -0.23502220       0.48989721 </v>
   <v>       0.21039486      -0.04119239       0.48572964 </v>
   <v>      -0.45332717      -0.35896488       0.48805961 </v>
   <v>      -0.19199334       0.10083211       0.48214892 </v>
   <v>       0.30384512      -0.09147204      -0.49110279 </v>
   <v>      -0.43853062       0.35728760       0.49229504 </v>
   <v>       0.47521352      -0.36959165       0.48541579 </v>
   <v>       0.15404092       0.07842350       0.46716703 </v>
   <v>       0.45102788       0.35700374       0.48219929 </v>
   <v>       0.48155341      -0.40047064       0.47532886 </v>
   <v>       0.35900830      -0.13919764       0.49984039 </v>
   <v>       0.40732989      -0.19699018       0.48987174 </v>
   <v>       0.25310548      -0.04882244       0.48034226 </v>
   <v>       0.45877174      -0.29026163      -0.49075245 </v>
   <v>      -0.15749419      -0.00812935       0.49974745 </v>
   <v>      -0.43012509       0.31751759      -0.49567680 </v>
   <v>       0.18096529       0.07660594       0.43762718 </v>
   <v>      -0.39745131       0.25648506      -0.42445109 </v>
   <v>      -0.14234312       0.06236719       0.49704132 </v>
   <v>       0.15667359       0.00549584       0.49936037 </v>
   <v>      -0.09968396       0.01674652      -0.48539062 </v>
   <v>       0.45007174      -0.24789976      -0.48258858 </v>
   <v>       0.10773406       0.04857417      -0.45743319 </v>
   <v>      -0.21931887      -0.02327987       0.48604009 </v>
   <v>      -0.24335472       0.10221977       0.41387165 </v>
   <v>      -0.18212309       0.07029317       0.48533493 </v>
   <v>       0.19664111      -0.00220584       0.48879064 </v>
   <v>       0.14002023       0.04568137      -0.49683224 </v>
   <v>      -0.13051576       0.02313929      -0.49517701 </v>
   <v>      -0.48458070       0.39931011       0.47364920 </v>
   <v>      -0.19732038       0.00018314       0.48845501 </v>
   <v>      -0.47778340       0.36852182       0.48366078 </v>
   <v>       0.38217116      -0.11696186      -0.49851881 </v>
   <v>       0.33085438      -0.06556444       0.48536566 </v>
   <v>      -0.49360142      -0.34284940       0.49287155 </v>
   <v>      -0.41569989       0.23524853      -0.45134921 </v>
   <v>       0.49795982      -0.30312279      -0.49466831 </v>
   <v>       0.43205903      -0.17036306      -0.48223385 </v>
   <v>      -0.47808130      -0.28167797      -0.49123318 </v>
   <v>       0.27962906      -0.02199030       0.45087771 </v>
   <v>      -0.38007872       0.18468183      -0.42725758 </v>
   <v>       0.49139757       0.34098814       0.48815654 </v>
   <v>      -0.26428147       0.08393116       0.44134313 </v>
   <v>      -0.31497012       0.11946872       0.41810009 </v>
   <v>      -0.46046120       0.28928701      -0.49249993 </v>
   <v>       0.47537472      -0.22198950      -0.44823949 </v>
   <v>       0.21752704       0.02227995       0.48626923 </v>
   <v>       0.37255195      -0.07694435       0.49424349 </v>
   <v>      -0.40614757       0.19575287      -0.45281448 </v>
   <v>       0.42133274      -0.12837309      -0.48906872 </v>
   <v>       0.31933592      -0.03044772       0.45356916 </v>
   <v>      -0.35993860       0.14028851       0.49394229 </v>
   <v>       0.47712142       0.27884842      -0.49807168 </v>
   <v>      -0.30368083       0.09343448       0.44361664 </v>
   <v>      -0.20985351       0.03949753       0.48175877 </v>
   <v>      -0.45029900       0.24721008      -0.48416259 </v>
   <v>       0.26910754       0.00439447       0.42544323 </v>
   <v>       0.46607958      -0.18240633      -0.44783413 </v>
   <v>      -0.49980377       0.30125334       0.49989952 </v>
   <v>      -0.25194813       0.04936250       0.47411812 </v>
   <v>      -0.49900031      -0.23303680      -0.42139990 </v>
   <v>       0.34101327      -0.01094276       0.43047436 </v>
   <v>      -0.27841784       0.02395276      -0.49920834 </v>
   <v>      -0.38235868       0.11718926       0.49558227 </v>
   <v>      -0.43181671       0.16980849      -0.48641229 </v>
   <v>       0.48405999      -0.16120514      -0.42033500 </v>
   <v>      -0.32922506       0.06782429       0.47821353 </v>
   <v>      -0.47565439       0.22037449       0.48999999 </v>
   <v>       0.40239569      -0.04826049       0.49716372 </v>
   <v>       0.45078167      -0.09936597      -0.48724450 </v>
   <v>      -0.46664816       0.18230976       0.48912271 </v>
   <v>      -0.42188640       0.12771817      -0.49552633 </v>
   <v>      -0.37109553       0.07767860       0.48889162 </v>
   <v>       0.39568315      -0.01693327       0.49326131 </v>
   <v>       0.48145037      -0.10839964      -0.48362955 </v>
   <v>      -0.31638392       0.03298394      -0.49732482 </v>
   <v>       0.44177191      -0.05923853      -0.49326331 </v>
   <v>      -0.39114866       0.01758454       0.48852713 </v>
   <v>      -0.45079313       0.09812099      -0.49454644 </v>
   <v>      -0.40009426       0.04830691       0.49321628 </v>
   <v>      -0.43259864      -0.01380661      -0.43717133 </v>
   <v>      -0.48534500      -0.06534923      -0.43225371 </v>
   <v>       0.47362897      -0.02949379      -0.48973894 </v>
   <v>      -0.48167869       0.10597107      -0.48899384 </v>
   <v>      -0.43985562       0.05829943      -0.49866737 </v>
   <v>      -0.46105386      -0.00924528      -0.46109404 </v>
   <v>      -0.49011650      -0.03767943      -0.45872235 </v>
   <v>       0.46639427       0.00623863       0.48292015 </v>
   <v>      -0.46975384       0.02663221      -0.49305263 </v>
   <v>       0.49408582       0.03397581       0.48188587 </v>
  </varray>
 </structure>
 <varray name="primitive_index" >
  <v type="int" >        1 </v>
  <v type="int" >        2 </v>
  <v type="int" >      216 </v>
  <v type="int" >      213 </v>
  <v type="int" >      215 </v>
  <v type="int" >      113 </v>
  <v type="int" >       38 </v>
  <v type="int" >      214 </v>
  <v type="int" >      114 </v>
  <v type="int" >       89 </v>
  <v type="int" >      119 </v>
  <v type="int" >      112 </v>
  <v type="int" >       40 </v>
  <v type="int" >       90 </v>
  <v type="int" >       37 </v>
  <v type="int" >      118 </v>
  <v type="int" >      109 </v>
  <v type="int" >      120 </v>
  <v type="int" >       41 </v>
  <v type="int" >      111 </v>
  <v type="int" >      110 </v>
  <v type="int" >       21 </v>
  <v type="int" >      184 </v>
  <v type="int" >      117 </v>
  <v type="int" >       97 </v>
  <v type="int" >      115 </v>
  <v type="int" >       99 </v>
  <v type="int" >       39 </v>
  <v type="int" >      236 </v>
  <v type="int" >      116 </v>
  <v type="int" >       22 </v>
  <v type="int" >      231 </v>
  <v type="int" >      183 </v>
  <v type="int" >      232 </v>
  <v type="int" >      235 </v>
  <v type="int" >       75 </v>
  <v type="int" >       73 </v>
  <v type="int" >       11 </v>
  <v type="int" >      188 </v>
  <v type="int" >      187 </v>
  <v type="int" >       42 </v>
  <v type="int" >      181 </v>
  <v type="int" >      182 </v>
  <v type="int" >      230 </v>
  <v type="int" >        9 </v>
  <v type="int" >      234 </v>
  <v type="int" >       98 </v>
  <v type="int" >       49 </v>
  <v type="int" >       12 </v>
  <v type="int" >       23 </v>
  <v type="int" >      100 </v>
  <v type="int" >       74 </v>
  <v type="int" >      229 </v>
  <v type="int" >      233 </v>
  <v type="int" >       10 </v>
  <v type="int" >      186 </v>
  <v type="int" >      137 </v>
  <v type="int" >      136 </v>
  <v type="int" >       76 </v>
  <v type="int" >       67 </v>
  <v type="int" >       24 </v>
  <v type="int" >      185 </v>
  <v type="int" >       86 </v>
  <v type="int" >      138 </v>
  <v type="int" >       50 </v>
  <v type="int" >      173 </v>
  <v type="int" >       70 </v>
  <v type="int" >      179 </v>
  <v type="int" >      172 </v>
  <v type="int" >      135 </v>
  <v type="int" >      178 </v>
  <v type="int" >      206 </v>
  <v type="int" >       52 </v>
  <v type="int" >      104 </v>
  <v type="int" >       71 </v>
  <v type="int" >      143 </v>
  <v type="int" >      180 </v>
  <v type="int" >      205 </v>
  <v type="int" >      174 </v>
  <v type="int" >       68 </v>
  <v type="int" >      133 </v>
  <v type="int" >      134 </v>
  <v type="int" >      142 </v>
  <v type="int" >      171 </v>
  <v type="int" >      242 </v>
  <v type="int" >      207 </v>
  <v type="int" >      102 </v>
  <v type="int" >       85 </v>
  <v type="int" >       53 </v>
  <v type="int" >      177 </v>
  <v type="int" >      241 </v>
  <v type="int" >      144 </v>
  <v type="int" >       81 </v>
  <v type="int" >       34 </v>
  <v type="int" >      169 </v>
  <v type="int" >      175 </v>
  <v type="int" >       88 </v>
  <v type="int" >       51 </v>
  <v type="int" >      200 </v>
  <v type="int" >      170 </v>
  <v type="int" >      103 </v>
  <v type="int" >      243 </v>
  <v type="int" >      238 </v>
  <v type="int" >      199 </v>
  <v type="int" >      176 </v>
  <v type="int" >      237 </v>
  <v type="int" >      141 </v>
  <v type="int" >      208 </v>
  <v type="int" >      107 </v>
  <v type="int" >       33 </v>
  <v type="int" >       16 </v>
  <v type="int" >      210 </v>
  <v type="int" >      139 </v>
  <v type="int" >       29 </v>
  <v type="int" >      105 </v>
  <v type="int" >      209 </v>
  <v type="int" >       69 </v>
  <v type="int" >      252 </v>
  <v type="int" >      248 </v>
  <v type="int" >      140 </v>
  <v type="int" >      251 </v>
  <v type="int" >      244 </v>
  <v type="int" >      239 </v>
  <v type="int" >       56 </v>
  <v type="int" >       72 </v>
  <v type="int" >       14 </v>
  <v type="int" >      101 </v>
  <v type="int" >       15 </v>
  <v type="int" >      247 </v>
  <v type="int" >      198 </v>
  <v type="int" >       83 </v>
  <v type="int" >      211 </v>
  <v type="int" >       65 </v>
  <v type="int" >       87 </v>
  <v type="int" >      145 </v>
  <v type="int" >       19 </v>
  <v type="int" >       17 </v>
  <v type="int" >      150 </v>
  <v type="int" >       82 </v>
  <v type="int" >      204 </v>
  <v type="int" >       36 </v>
  <v type="int" >       30 </v>
  <v type="int" >       54 </v>
  <v type="int" >      240 </v>
  <v type="int" >       13 </v>
  <v type="int" >      203 </v>
  <v type="int" >      197 </v>
  <v type="int" >      163 </v>
  <v type="int" >      250 </v>
  <v type="int" >      168 </v>
  <v type="int" >       57 </v>
  <v type="int" >      212 </v>
  <v type="int" >      246 </v>
  <v type="int" >      146 </v>
  <v type="int" >      108 </v>
  <v type="int" >       35 </v>
  <v type="int" >       31 </v>
  <v type="int" >       26 </v>
  <v type="int" >       20 </v>
  <v type="int" >       62 </v>
  <v type="int" >       18 </v>
  <v type="int" >      106 </v>
  <v type="int" >        8 </v>
  <v type="int" >      149 </v>
  <v type="int" >      249 </v>
  <v type="int" >       59 </v>
  <v type="int" >       25 </v>
  <v type="int" >      157 </v>
  <v type="int" >      164 </v>
  <v type="int" >      202 </v>
  <v type="int" >      245 </v>
  <v type="int" >       66 </v>
  <v type="int" >       45 </v>
  <v type="int" >        7 </v>
  <v type="int" >      189 </v>
  <v type="int" >      167 </v>
  <v type="int" >      153 </v>
  <v type="int" >      162 </v>
  <v type="int" >       84 </v>
  <v type="int" >       94 </v>
  <v type="int" >      151 </v>
  <v type="int" >      147 </v>
  <v type="int" >       60 </v>
  <v type="int" >      225 </v>
  <v type="int" >       32 </v>
  <v type="int" >       58 </v>
  <v type="int" >       80 </v>
  <v type="int" >      156 </v>
  <v type="int" >      148 </v>
  <v type="int" >      201 </v>
  <v type="int" >      152 </v>
  <v type="int" >       63 </v>
  <v type="int" >      154 </v>
  <v type="int" >      158 </v>
  <v type="int" >      122 </v>
  <v type="int" >      192 </v>
  <v type="int" >      165 </v>
  <v type="int" >      222 </v>
  <v type="int" >      166 </v>
  <v type="int" >      228 </v>
  <v type="int" >       64 </v>
  <v type="int" >      190 </v>
  <v type="int" >       93 </v>
  <v type="int" >      159 </v>
  <v type="int" >      194 </v>
  <v type="int" >       79 </v>
  <v type="int" >      161 </v>
  <v type="int" >      226 </v>
  <v type="int" >       55 </v>
  <v type="int" >      121 </v>
  <v type="int" >      223 </v>
  <v type="int" >      123 </v>
  <v type="int" >      191 </v>
  <v type="int" >       48 </v>
  <v type="int" >       61 </v>
  <v type="int" >      195 </v>
  <v type="int" >      155 </v>
  <v type="int" >      221 </v>
  <v type="int" >       78 </v>
  <v type="int" >      227 </v>
  <v type="int" >      160 </v>
  <v type="int" >      193 </v>
  <v type="int" >       96 </v>
  <v type="int" >       77 </v>
  <v type="int" >       28 </v>
  <v type="int" >      128 </v>
  <v type="int" >      224 </v>
  <v type="int" >       95 </v>
  <v type="int" >      196 </v>
  <v type="int" >        6 </v>
  <v type="int" >      126 </v>
  <v type="int" >      124 </v>
  <v type="int" >        5 </v>
  <v type="int" >      129 </v>
  <v type="int" >      127 </v>
  <v type="int" >       44 </v>
  <v type="int" >       43 </v>
  <v type="int" >       27 </v>
  <v type="int" >      125 </v>
  <v type="int" >       47 </v>
  <v type="int" >      130 </v>
  <v type="int" >      132 </v>
  <v type="int" >       92 </v>
  <v type="int" >       91 </v>
  <v type="int" >      220 </v>
  <v type="int" >       46 </v>
  <v type="int" >      131 </v>
  <v type="int" >      218 </v>
  <v type="int" >      219 </v>
  <v type="int" >        3 </v>
  <v type="int" >      217 </v>
  <v type="int" >        4 </v>
 </varray>
 <kpoints>
  <generation param="listgenerated">
   <i name="divisions" type="int">      20 </i>
   <v>       0.00000000       0.00000000       0.00000000 </v>
   <v>       0.50000000      -0.50000000       0.00000000 </v>
   <v>       0.50188593      -0.49812332       0.00000000 </v>
   <v>       0.50000000       0.00000000       0.00000000 </v>
   <v>       0.49811407       0.49812332       0.00000000 </v>
   <v>       0.00000000       0.50000000       0.00000000 </v>
   <v>       0.00000000       0.00000000       0.00000000 </v>
  </generation>
  <varray name="kpointlist" >
   <v>       0.00000000       0.00000000       0.00000000 </v>
   <v>       0.02631579      -0.02631579       0.00000000 </v>
   <v>       0.05263158      -0.05263158       0.00000000 </v>
   <v>       0.07894737      -0.07894737       0.00000000 </v>
   <v>       0.10526316      -0.10526316       0.00000000 </v>
   <v>       0.13157895      -0.13157895       0.00000000 </v>
   <v>       0.15789474      -0.15789474       0.00000000 </v>
   <v>       0.18421053      -0.18421053       0.00000000 </v>
   <v>       0.21052632      -0.21052632       0.00000000 </v>
   <v>       0.23684211      -0.23684211       0.00000000 </v>
   <v>       0.26315789      -0.26315789       0.00000000 </v>
   <v>       0.28947368      -0.28947368       0.00000000 </v>
   <v>       0.31578947      -0.31578947       0.00000000 </v>
   <v>       0.34210526      -0.34210526       0.00000000 </v>
   <v>       0.36842105      -0.36842105       0.00000000 </v>
   <v>       0.39473684      -0.39473684       0.00000000 </v>
   <v>       0.42105263      -0.42105263       0.00000000 </v>
   <v>       0.44736842      -0.44736842       0.00000000 </v>
   <v>       0.47368421      -0.47368421       0.00000000 </v>
   <v>       0.50000000      -0.50000000       0.00000000 </v>
   <v>       0.50000000      -0.50000000       0.00000000 </v>
   <v>       0.50009926      -0.49990123       0.00000000 </v>
   <v>       0.50019852      -0.49980246       0.00000000 </v>
   <v>       0.50029778      -0.49970368       0.00000000 </v>
   <v>       0.50039704      -0.49960491       0.00000000 </v>
   <v>       0.50049630      -0.49950614       0.00000000 </v>
   <v>       0.50059556      -0.49940737       0.00000000 </v>
   <v>       0.50069481      -0.49930859       0.00000000 </v>
   <v>       0.50079407      -0.49920982       0.00000000 </v>
   <v>       0.50089333      -0.49911105       0.00000000 </v>
   <v>       0.50099259      -0.49901228       0.00000000 </v>
   <v>       0.50109185      -0.49891350       0.00000000 </v>
   <v>       0.50119111      -0.49881473       0.00000000 </v>
   <v>       0.50129037      -0.49871596       0.00000000 </v>
   <v>       0.50138963      -0.49861719       0.00000000 </v>
   <v>       0.50148889      -0.49851841       0.00000000 </v>
   <v>       0.50158815      -0.49841964       0.00000000 </v>
   <v>       0.50168741      -0.49832087       0.00000000 </v>
   <v>       0.50178667      -0.49822210       0.00000000 </v>
   <v>       0.50188593      -0.49812332       0.00000000 </v>
   <v>       0.50188593      -0.49812332       0.00000000 </v>
   <v>       0.50178667      -0.47190631       0.00000000 </v>
   <v>       0.50168741      -0.44568929       0.00000000 </v>
   <v>       0.50158815      -0.41947227       0.00000000 </v>
   <v>       0.50148889      -0.39325525       0.00000000 </v>
   <v>       0.50138963      -0.36703824       0.00000000 </v>
   <v>       0.50129037      -0.34082122       0.00000000 </v>
   <v>       0.50119111      -0.31460420       0.00000000 </v>
   <v>       0.50109185      -0.28838719       0.00000000 </v>
   <v>       0.50099259      -0.26217017       0.00000000 </v>
   <v>       0.50089333      -0.23595315       0.00000000 </v>
   <v>       0.50079407      -0.20973614       0.00000000 </v>
   <v>       0.50069481      -0.18351912       0.00000000 </v>
   <v>       0.50059556      -0.15730210       0.00000000 </v>
   <v>       0.50049630      -0.13108508       0.00000000 </v>
   <v>       0.50039704      -0.10486807       0.00000000 </v>
   <v>       0.50029778      -0.07865105       0.00000000 </v>
   <v>       0.50019852      -0.05243403       0.00000000 </v>
   <v>       0.50009926      -0.02621702       0.00000000 </v>
   <v>       0.50000000       0.00000000       0.00000000 </v>
   <v>       0.50000000       0.00000000       0.00000000 </v>
   <v>       0.49990074       0.02621702       0.00000000 </v>
   <v>       0.49980148       0.05243403       0.00000000 </v>
   <v>       0.49970222       0.07865105       0.00000000 </v>
   <v>       0.49960296       0.10486807       0.00000000 </v>
   <v>       0.49950370       0.13108508       0.00000000 </v>
   <v>       0.49940444       0.15730210       0.00000000 </v>
   <v>       0.49930519       0.18351912       0.00000000 </v>
   <v>       0.49920593       0.20973614       0.00000000 </v>
   <v>       0.49910667       0.23595315       0.00000000 </v>
   <v>       0.49900741       0.26217017       0.00000000 </v>
   <v>       0.49890815       0.28838719       0.00000000 </v>
   <v>       0.49880889       0.31460420       0.00000000 </v>
   <v>       0.49870963       0.34082122       0.00000000 </v>
   <v>       0.49861037       0.36703824       0.00000000 </v>
   <v>       0.49851111       0.39325525       0.00000000 </v>
   <v>       0.49841185       0.41947227       0.00000000 </v>
   <v>       0.49831259       0.44568929       0.00000000 </v>
   <v>       0.49821333       0.47190631       0.00000000 </v>
   <v>       0.49811407       0.49812332       0.00000000 </v>
   <v>       0.49811407       0.49812332       0.00000000 </v>
   <v>       0.47189754       0.49822210       0.00000000 </v>
   <v>       0.44568101       0.49832087       0.00000000 </v>
   <v>       0.41946448       0.49841964       0.00000000 </v>
   <v>       0.39324795       0.49851841       0.00000000 </v>
   <v>       0.36703142       0.49861719       0.00000000 </v>
   <v>       0.34081489       0.49871596       0.00000000 </v>
   <v>       0.31459836       0.49881473       0.00000000 </v>
   <v>       0.28838183       0.49891350       0.00000000 </v>
   <v>       0.26216530       0.49901228       0.00000000 </v>
   <v>       0.23594877       0.49911105       0.00000000 </v>
   <v>       0.20973224       0.49920982       0.00000000 </v>
   <v>       0.18351571       0.49930859       0.00000000 </v>
   <v>       0.15729918       0.49940737       0.00000000 </v>
   <v>       0.13108265       0.49950614       0.00000000 </v>
   <v>       0.10486612       0.49960491       0.00000000 </v>
   <v>       0.07864959       0.49970368       0.00000000 </v>
   <v>       0.05243306       0.49980246       0.00000000 </v>
   <v>       0.02621653       0.49990123       0.00000000 </v>
   <v>       0.00000000       0.50000000       0.00000000 </v>
   <v>       0.00000000       0.50000000       0.00000000 </v>
   <v>       0.00000000       0.47368421       0.00000000 </v>
   <v>       0.00000000       0.44736842       0.00000000 </v>
   <v>       0.00000000       0.42105263       0.00000000 </v>
   <v>       0.00000000       0.39473684       0.00000000 </v>
   <v>       0.00000000       0.36842105       0.00000000 </v>
   <v>       0.00000000       0.34210526       0.00000000 </v>
   <v>       0.00000000       0.31578947       0.00000000 </v>
   <v>       0.00000000       0.28947368       0.00000000 </v>
   <v>       0.00000000       0.26315789       0.00000000 </v>
   <v>       0.00000000       0.23684211       0.00000000 </v>
   <v>       0.00000000       0.21052632       0.00000000 </v>
   <v>       0.00000000       0.18421053       0.00000000 </v>
   <v>       0.00000000       0.15789474       0.00000000 </v>
   <v>       0.00000000       0.13157895       0.00000000 </v>
   <v>       0.00000000       0.10526316       0.00000000 </v>
   <v>       0.00000000       0.07894737       0.00000000 </v>
   <v>       0.00000000       0.05263158       0.00000000 </v>
   <v>       0.00000000       0.02631579       0.00000000 </v>
   <v>       0.00000000       0.00000000       0.00000000 </v>
  </varray>
  <varray name="weights" >
   <v>       0.00833333 </v>
   <v>       0.00833333 </v>
   <v>       0.00833333 </v>
   <v>       0.00833333 </v>
   <v>       0.00833333 </v>
   <v>       0.00833333 </v>
   <v>       0.00833333 </v>
   <v>       0.00833333 </v>
   <v>       0.00833333 </v>
   <v>       0.00833333 </v>
   <v>       0.00833333 </v>
   <v>       0.00833333 </v>
   <v>       0.00833333 </v>
   <v>       0.00833333 </v>
   <v>       0.00833333 </v>
   <v>       0.00833333 </v>
   <v>       0.00833333 </v>
   <v>       0.00833333 </v>
   <v>       0.00833333 </v>
   <v>       0.00833333 </v>
   <v>       0.00833333 </v>
   <v>       0.00833333 </v>
   <v>       0.00833333 </v>
   <v>       0.00833333 </v>
   <v>       0.00833333 </v>
   <v>       0.00833333 </v>
   <v>       0.00833333 </v>
   <v>       0.00833333 </v>
   <v>       0.00833333 </v>
   <v>       0.00833333 </v>
   <v>       0.00833333 </v>
   <v>       0.00833333 </v>
   <v>       0.00833333 </v>
   <v>       0.00833333 </v>
   <v>       0.00833333 </v>
   <v>       0.00833333 </v>
   <v>       0.00833333 </v>
   <v>       0.00833333 </v>
   <v>       0.00833333 </v>
   <v>       0.00833333 </v>
   <v>       0.00833333 </v>
   <v>       0.00833333 </v>
   <v>       0.00833333 </v>
   <v>       0.00833333 </v>
   <v>       0.00833333 </v>
   <v>       0.00833333 </v>
   <v>       0.00833333 </v>
   <v>       0.00833333 </v>
   <v>       0.00833333 </v>
   <v>       0.00833333 </v>
   <v>       0.00833333 </v>
   <v>       0.00833333 </v>
   <v>       0.00833333 </v>
   <v>       0.00833333 </v>
   <v>       0.00833333 </v>
   <v>       0.00833333 </v>
   <v>       0.00833333 </v>
   <v>       0.00833333 </v>
   <v>       0.00833333 </v>
   <v>       0.00833333 </v>
   <v>       0.00833333 </v>
   <v>       0.00833333 </v>
   <v>       0.00833333 </v>
   <v>       0.00833333 </v>
   <v>       0.00833333 </v>
   <v>       0.00833333 </v>
   <v>       0.00833333 </v>
   <v>       0.00833333 </v>
   <v>       0.00833333 </v>
   <v>       0.00833333 </v>
   <v>       0.00833333 </v>
   <v>       0.00833333 </v>
   <v>       0.00833333 </v>
   <v>       0.00833333 </v>
   <v>       0.00833333 </v>
   <v>       0.00833333 </v>
   <v>       0.00833333 </v>
   <v>       0.00833333 </v>
   <v>       0.00833333 </v>
   <v>       0.00833333 </v>
   <v>       0.00833333 </v>
   <v>       0.00833333 </v>
   <v>       0.00833333 </v>
   <v>       0.00833333 </v>
   <v>       0.00833333 </v>
   <v>       0.00833333 </v>
   <v>       0.00833333 </v>
   <v>       0.00833333 </v>
   <v>       0.00833333 </v>
   <v>       0.00833333 </v>
   <v>       0.00833333 </v>
   <v>       0.00833333 </v>
   <v>       0.00833333 </v>
   <v>       0.00833333 </v>
   <v>       0.00833333 </v>
   <v>       0.00833333 </v>
   <v>       0.00833333 </v>
   <v>       0.00833333 </v>
   <v>       0.00833333 </v>
   <v>       0.00833333 </v>
   <v>       0.00833333 </v>
   <v>       0.00833333 </v>
   <v>       0.00833333 </v>
   <v>       0.00833333 </v>
   <v>       0.00833333 </v>
   <v>       0.00833333 </v>
   <v>       0.00833333 </v>
   <v>       0.00833333 </v>
   <v>       0.00833333 </v>
   <v>       0.00833333 </v>
   <v>       0.00833333 </v>
   <v>       0.00833333 </v>
   <v>       0.00833333 </v>
   <v>       0.00833333 </v>
   <v>       0.00833333 </v>
   <v>       0.00833333 </v>
   <v>       0.00833333 </v>
   <v>       0.00833333 </v>
   <v>       0.00833333 </v>
   <v>       0.00833333 </v>
  </varray>
 </kpoints>
 <parameters>
  <separator name="general" >
   <i type="string" name="SYSTEM">Simulation for cell shape cell volume r</i>
   <i type="logical" name="LCOMPAT"> F  </i>
  </separator>
  <separator name="electronic" >
   <i type="string" name="PREC">high</i>
   <i name="ENMAX">    500.00000000</i>
   <i name="ENAUG">    644.87300000</i>
   <i name="EDIFF">      0.00001000</i>
   <i type="int" name="IALGO">    38</i>
   <i type="int" name="IWAVPR">    10</i>
   <i type="int" name="NBANDS">   544</i>
   <i name="NELECT">    828.00000000</i>
   <i type="int" name="TURBO">     0</i>
   <i type="int" name="IRESTART">     0</i>
   <i type="int" name="NREBOOT">     0</i>
   <i type="int" name="NMIN">     0</i>
   <i name="EREF">      0.00000000</i>
   <separator name="electronic smearing" >
    <i type="int" name="ISMEAR">     0</i>
    <i name="SIGMA">      0.01000000</i>
    <i name="KSPACING">      0.50000000</i>
    <i type="logical" name="KGAMMA"> T  </i>
   </separator>
   <separator name="electronic projectors" >
    <i type="logical" name="LREAL"> T  </i>
    <v name="ROPT">     -0.00040000     -0.00040000     -0.00040000</v>
    <i type="int" name="LMAXPAW">  -100</i>
    <i type="int" name="LMAXMIX">     2</i>
    <i type="logical" name="NLSPLINE"> F  </i>
   </separator>
   <separator name="electronic startup" >
    <i type="int" name="ISTART">     1</i>
    <i type="int" name="ICHARG">    11</i>
    <i type="int" name="INIWAV">     1</i>
   </separator>
   <separator name="electronic spin" >
    <i type="int" name="ISPIN">     1</i>
    <i type="logical" name="LNONCOLLINEAR"> F  </i>
    <v name="MAGMOM">      1.00000000      1.00000000      1.00000000      1.00000000      1.00000000      1.00000000      1.00000000      1.00000000      1.00000000      1.00000000      1.00000000      1.00000000      1.00000000      1.00000000      1.00000000      1.00000000      1.00000000      1.00000000      1.00000000      1.00000000
      1.00000000      1.00000000      1.00000000      1.00000000      1.00000000      1.00000000      1.00000000      1.00000000      1.00000000      1.00000000      1.00000000      1.00000000      1.00000000      1.00000000      1.00000000      1.00000000      1.00000000      1.00000000      1.00000000      1.00000000
      1.00000000      1.00000000      1.00000000      1.00000000      1.00000000      1.00000000      1.00000000      1.00000000      1.00000000      1.00000000      1.00000000      1.00000000      1.00000000      1.00000000      1.00000000      1.00000000      1.00000000      1.00000000      1.00000000      1.00000000
      1.00000000      1.00000000      1.00000000      1.00000000      1.00000000      1.00000000      1.00000000      1.00000000      1.00000000      1.00000000      1.00000000      1.00000000      1.00000000      1.00000000      1.00000000      1.00000000      1.00000000      1.00000000      1.00000000      1.00000000
      1.00000000      1.00000000      1.00000000      1.00000000      1.00000000      1.00000000      1.00000000      1.00000000      1.00000000      1.00000000      1.00000000      1.00000000      1.00000000      1.00000000      1.00000000      1.00000000      1.00000000      1.00000000      1.00000000      1.00000000
      1.00000000      1.00000000      1.00000000      1.00000000      1.00000000      1.00000000      1.00000000      1.00000000      1.00000000      1.00000000      1.00000000      1.00000000      1.00000000      1.00000000      1.00000000      1.00000000      1.00000000      1.00000000      1.00000000      1.00000000
      1.00000000      1.00000000      1.00000000      1.00000000      1.00000000      1.00000000      1.00000000      1.00000000      1.00000000      1.00000000      1.00000000      1.00000000      1.00000000      1.00000000      1.00000000      1.00000000      1.00000000      1.00000000      1.00000000      1.00000000
      1.00000000      1.00000000      1.00000000      1.00000000      1.00000000      1.00000000      1.00000000      1.00000000      1.00000000      1.00000000      1.00000000      1.00000000      1.00000000      1.00000000      1.00000000      1.00000000      1.00000000      1.00000000      1.00000000      1.00000000
      1.00000000      1.00000000      1.00000000      1.00000000      1.00000000      1.00000000      1.00000000      1.00000000      1.00000000      1.00000000      1.00000000      1.00000000      1.00000000      1.00000000      1.00000000      1.00000000      1.00000000      1.00000000      1.00000000      1.00000000
      1.00000000      1.00000000      1.00000000      1.00000000      1.00000000      1.00000000      1.00000000      1.00000000      1.00000000      1.00000000      1.00000000      1.00000000      1.00000000      1.00000000      1.00000000      1.00000000      1.00000000      1.00000000      1.00000000      1.00000000
      1.00000000      1.00000000      1.00000000      1.00000000      1.00000000      1.00000000      1.00000000      1.00000000      1.00000000      1.00000000      1.00000000      1.00000000      1.00000000      1.00000000      1.00000000      1.00000000      1.00000000      1.00000000      1.00000000      1.00000000
      1.00000000      1.00000000      1.00000000      1.00000000      1.00000000      1.00000000      1.00000000      1.00000000      1.00000000      1.00000000      1.00000000      1.00000000      1.00000000      1.00000000      1.00000000      1.00000000      1.00000000      1.00000000      1.00000000      1.00000000
      1.00000000      1.00000000      1.00000000      1.00000000      1.00000000      1.00000000      1.00000000      1.00000000      1.00000000      1.00000000      1.00000000      1.00000000</v>
    <i name="NUPDOWN">     -1.00000000</i>
    <i type="logical" name="LSORBIT"> F  </i>
    <v name="SAXIS">      0.00000000      0.00000000      1.00000000</v>
    <i type="logical" name="LSPIRAL"> F  </i>
    <v name="QSPIRAL">      0.00000000      0.00000000      0.00000000</v>
    <i type="logical" name="LZEROZ"> F  </i>
   </separator>
   <separator name="electronic exchange-correlation" >
    <i type="logical" name="LASPH"> F  </i>
    <i type="logical" name="LMETAGGA"> F  </i>
   </separator>
   <separator name="electronic convergence" >
    <i type="int" name="NELM">   200</i>
    <i type="int" name="NELMDL">     0</i>
    <i type="int" name="NELMIN">     2</i>
    <i name="ENINI">    500.00000000</i>
    <separator name="electronic convergence detail" >
     <i type="logical" name="LDIAG"> T  </i>
     <i type="logical" name="LSUBROT"> F  </i>
     <i name="WEIMIN">      0.00000000</i>
     <i name="EBREAK">      0.00000000</i>
     <i name="DEPER">      0.30000000</i>
     <i type="int" name="NRMM">     4</i>
     <i name="TIME">      0.40000000</i>
    </separator>
   </separator>
   <separator name="electronic mixer" >
    <i name="AMIX">      0.40000000</i>
    <i name="BMIX">      1.00000000</i>
    <i name="AMIN">      0.10000000</i>
    <i name="AMIX_MAG">      1.60000000</i>
    <i name="BMIX_MAG">      1.00000000</i>
    <separator name="electronic mixer details" >
     <i type="int" name="IMIX">     4</i>
     <i type="logical" name="MIXFIRST"> F  </i>
     <i type="int" name="MAXMIX">   -45</i>
     <i name="WC">    100.00000000</i>
     <i type="int" name="INIMIX">     1</i>
     <i type="int" name="MIXPRE">     1</i>
     <i type="int" name="MREMOVE">     5</i>
    </separator>
   </separator>
   <separator name="electronic dipolcorrection" >
    <i type="logical" name="LDIPOL"> F  </i>
    <i type="logical" name="LMONO"> F  </i>
    <i type="int" name="IDIPOL">     0</i>
    <i name="EPSILON">      1.00000000</i>
    <v name="DIPOL">   -100.00000000   -100.00000000   -100.00000000</v>
    <i name="EFIELD">      0.00000000</i>
   </separator>
  </separator>
  <separator name="grids" >
   <i type="int" name="NGX">   250</i>
   <i type="int" name="NGY">   250</i>
   <i type="int" name="NGZ">   150</i>
   <i type="int" name="NGXF">   378</i>
   <i type="int" name="NGYF">   378</i>
   <i type="int" name="NGZF">   224</i>
   <i type="logical" name="ADDGRID"> F  </i>
  </separator>
  <separator name="ionic" >
   <i type="int" name="NSW">     0</i>
   <i type="int" name="IBRION">    -1</i>
   <i type="int" name="MDALGO">     0</i>
   <i type="int" name="ISIF">     2</i>
   <i name="PSTRESS">      0.00000000</i>
   <i name="EDIFFG">     -0.01000000</i>
   <i type="int" name="NFREE">     0</i>
   <i name="POTIM">      0.30000000</i>
   <i name="SMASS">     -3.00000000</i>
   <i name="SCALEE">      1.00000000</i>
  </separator>
  <separator name="ionic md" >
   <i name="TEBEG">      0.00010000</i>
   <i name="TEEND">      0.00010000</i>
   <i type="int" name="NBLOCK">     1</i>
   <i type="int" name="KBLOCK">     1</i>
   <i type="int" name="NPACO">   256</i>
   <i name="APACO">     16.00000000</i>
  </separator>
  <separator name="symmetry" >
   <i type="int" name="ISYM">     2</i>
   <i name="SYMPREC">      0.00001000</i>
  </separator>
  <separator name="dos" >
   <i type="int" name="LORBIT">     0</i>
   <v name="RWIGS">     -1.00000000     -1.00000000     -1.00000000</v>
   <i type="int" name="NEDOS">   301</i>
   <i name="EMIN">     10.00000000</i>
   <i name="EMAX">    -10.00000000</i>
   <i name="EFERMI">      0.00000000</i>
  </separator>
  <separator name="writing" >
   <i type="int" name="NWRITE">     0</i>
   <i type="logical" name="LWAVE"> F  </i>
   <i type="logical" name="LDOWNSAMPLE"> F  </i>
   <i type="logical" name="LCHARG"> F  </i>
   <i type="logical" name="LPARD"> F  </i>
   <i type="logical" name="LVTOT"> F  </i>
   <i type="logical" name="LVHAR"> F  </i>
   <i type="logical" name="LELF"> F  </i>
   <i type="logical" name="LOPTICS"> F  </i>
   <v name="STM">      0.00000000      0.00000000      0.00000000      0.00000000      0.00000000      0.00000000      0.00000000</v>
  </separator>
  <separator name="performance" >
   <i type="int" name="NPAR">    16</i>
   <i type="int" name="NSIM">     4</i>
   <i type="int" name="NBLK">    -1</i>
   <i type="logical" name="LPLANE"> T  </i>
   <i type="logical" name="LSCALAPACK"> T  </i>
   <i type="logical" name="LSCAAWARE"> F  </i>
   <i type="logical" name="LSCALU"> F  </i>
   <i type="logical" name="LASYNC"> F  </i>
   <i type="logical" name="LORBITALREAL"> F  </i>
  </separator>
  <separator name="miscellaneous" >
   <i type="int" name="IDIOT">     3</i>
   <i type="int" name="ISPECIAL">     0</i>
   <i type="logical" name="LMUSIC"> F  </i>
   <v name="POMASS">     14.00100000      1.00000000     12.01100000</v>
   <v name="DARWINR">      0.00000000      0.00000000      0.00000000</v>
   <v name="DARWINV">      1.00000000      1.00000000      1.00000000</v>
   <i type="logical" name="LCORR"> T  </i>
  </separator>
  <i type="logical" name="GGA_COMPAT"> T  </i>
  <i type="logical" name="LBERRY"> F  </i>
  <i type="int" name="ICORELEVEL">     0</i>
  <i type="logical" name="LDAU"> F  </i>
  <i type="int" name="I_CONSTRAINED_M">     0</i>
  <separator name="electronic exchange-correlation" >
   <i type="string" name="GGA">PE</i>
   <i type="int" name="VOSKOWN">     0</i>
   <i type="logical" name="LHFCALC"> F  </i>
   <i type="string" name="PRECFOCK"></i>
   <i type="logical" name="LSYMGRAD"> F  </i>
   <i type="logical" name="LHFONE"> F  </i>
   <i type="logical" name="LRHFCALC"> F  </i>
   <i type="logical" name="LTHOMAS"> F  </i>
   <i type="logical" name="LMODELHF"> F  </i>
   <i name="ENCUT4O">     -1.00000000</i>
   <i type="int" name="EXXOEP">     0</i>
   <i type="int" name="FOURORBIT">     0</i>
   <i name="AEXX">      0.00000000</i>
   <i name="HFALPHA">      0.00000000</i>
   <i name="MCALPHA">      0.00000000</i>
   <i name="ALDAX">      1.00000000</i>
   <i name="AGGAX">      1.00000000</i>
   <i name="ALDAC">      1.00000000</i>
   <i name="AGGAC">      1.00000000</i>
   <i type="int" name="NKREDX">     1</i>
   <i type="int" name="NKREDY">     1</i>
   <i type="int" name="NKREDZ">     1</i>
   <i type="logical" name="SHIFTRED"> F  </i>
   <i type="logical" name="ODDONLY"> F  </i>
   <i type="logical" name="EVENONLY"> F  </i>
   <i type="int" name="LMAXFOCK">     0</i>
   <i type="int" name="NMAXFOCKAE">     0</i>
   <i type="logical" name="LFOCKAEDFT"> F  </i>
   <i name="HFSCREEN">      0.00000000</i>
   <i name="HFSCREENC">      0.00000000</i>
   <i type="int" name="NBANDSGWLOW">     0</i>
  </separator>
  <separator name="vdW DFT" >
   <i type="logical" name="LUSE_VDW"> F  </i>
   <i name="Zab_VDW">     -0.84910000</i>
   <i name="PARAM1">      0.12340000</i>
   <i name="PARAM2">      1.00000000</i>
   <i name="PARAM3">      0.00000000</i>
  </separator>
  <separator name="model GW" >
   <i type="int" name="MODEL_GW">     0</i>
   <i name="MODEL_EPS0">     54.86977820</i>
   <i name="MODEL_ALPHA">      1.00000000</i>
  </separator>
  <separator name="linear response parameters" >
   <i type="logical" name="LEPSILON"> F  </i>
   <i type="logical" name="LRPA"> F  </i>
   <i type="logical" name="LNABLA"> F  </i>
   <i type="logical" name="LVEL"> F  </i>
   <i type="int" name="KINTER">     0</i>
   <i name="CSHIFT">      0.10000000</i>
   <i name="OMEGAMAX">     -1.00000000</i>
   <i name="DEG_THRESHOLD">      0.00200000</i>
   <i name="RTIME">     -0.10000000</i>
   <i name="WPLASMAI">      0.00000000</i>
   <v name="DFIELD">      0.00000000      0.00000000      0.00000000</v>
   <v name="WPLASMA">      0.00000000      0.00000000      0.00000000      0.00000000      0.00000000      0.00000000      0.00000000      0.00000000      0.00000000</v>
  </separator>
  <separator name="orbital magnetization" >
   <i type="logical" name="NUCIND"> F  </i>
   <v name="MAGPOS">      0.00000000      0.00000000      0.00000000</v>
   <i type="logical" name="LNICSALL"> T  </i>
   <i type="logical" name="ORBITALMAG"> F  </i>
   <i type="logical" name="LMAGBLOCH"> F  </i>
   <i type="logical" name="LCHIMAG"> F  </i>
   <i type="logical" name="LGAUGE"> T  </i>
   <i type="int" name="MAGATOM">     0</i>
   <v name="MAGDIPOL">      0.00000000      0.00000000      0.00000000</v>
   <v name="AVECCONST">      0.00000000      0.00000000      0.00000000</v>
  </separator>
  <separator name="response functions" >
   <i type="logical" name="LADDER"> F  </i>
   <i type="logical" name="LRPAFORCE"> F  </i>
   <i type="logical" name="LFXC"> F  </i>
   <i type="logical" name="LHARTREE"> T  </i>
   <i type="int" name="IBSE">     0</i>
   <v type="int" name="KPOINT">    -1     0     0     0</v>
   <i type="logical" name="LTCTE"> F  </i>
   <i type="logical" name="LTETE"> F  </i>
   <i type="logical" name="LTRIPLET"> F  </i>
   <i type="logical" name="LFXCEPS"> F  </i>
   <i type="logical" name="LFXHEG"> F  </i>
   <i type="int" name="NATURALO">     2</i>
   <i type="logical" name="L2ORDER"> F  </i>
   <i type="logical" name="LMP2LT"> F  </i>
   <i type="logical" name="LUSEW"> F  </i>
   <i name="ENCUTGW">     -2.00000000</i>
   <i name="ENCUTGWSOFT">     -2.00000000</i>
   <i name="ENCUTLF">     -1.00000000</i>
   <i type="int" name="LMAXMP2">    -1</i>
   <i name="SCISSOR">      0.00000000</i>
   <i type="int" name="NOMEGA">     0</i>
   <i type="int" name="NOMEGAR">     0</i>
   <i type="int" name="NBANDSGW">    -1</i>
   <i type="int" name="NBANDSO">    -1</i>
   <i type="int" name="NBANDSV">    -1</i>
   <i type="int" name="NELM">   200</i>
   <i type="int" name="NELMHF">     1</i>
   <i type="int" name="DIM">     3</i>
   <i type="int" name="ANTIRES">     0</i>
   <i name="OMEGAMAX">    -30.00000000</i>
   <i name="OMEGAMIN">    -30.00000000</i>
   <i name="OMEGATL">   -200.00000000</i>
   <i type="int" name="OMEGAGRID">   140</i>
   <i name="CSHIFT">     -0.10000000</i>
   <i type="logical" name="SELFENERGY"> F  </i>
   <i type="logical" name="LSPECTRAL"> F  </i>
   <i type="logical" name="LSPECTRALGW"> F  </i>
   <i type="logical" name="LSINGLES"> F  </i>
   <i type="logical" name="LFERMIGW"> F  </i>
   <i type="logical" name="ODDONLYGW"> F  </i>
   <i type="logical" name="EVENONLYGW"> F  </i>
   <i type="int" name="NKREDLFX">     1</i>
   <i type="int" name="NKREDLFY">     1</i>
   <i type="int" name="NKREDLFZ">     1</i>
   <i type="int" name="MAXMEM">  2800</i>
   <i type="int" name="TELESCOPE">     0</i>
   <i type="int" name="TAUPAR">     1</i>
   <i type="int" name="OMEGAPAR">    -1</i>
   <i name="LAMBDA">      1.00000000</i>
  </separator>
  <separator name="External order field" >
   <i name="OFIELD_KAPPA">      0.00000000</i>
   <v name="OFIELD_K">      0.00000000      0.00000000      0.00000000</v>
   <i name="OFIELD_Q6_NEAR">      0.00000000</i>
   <i name="OFIELD_Q6_FAR">      0.00000000</i>
   <i name="OFIELD_A">      0.00000000</i>
  </separator>
  <separator name="solvation model" >
   <i type="logical" name="LSOL"> F  </i>
  </separator>
 </parameters>
 <atominfo>
  <atoms>     252 </atoms>
  <types>       3 </types>
  <array name="atoms" >
   <dimension dim="1">ion</dimension>
   <field type="string">element</field>
   <field type="int">atomtype</field>
   <set>
    <rc><c>N </c><c>   1</c></rc>
    <rc><c>N </c><c>   1</c></rc>
    <rc><c>N </c><c>   1</c></rc>
    <rc><c>N </c><c>   1</c></rc>
    <rc><c>N </c><c>   1</c></rc>
    <rc><c>N </c><c>   1</c></rc>
    <rc><c>N </c><c>   1</c></rc>
    <rc><c>N </c><c>   1</c></rc>
    <rc><c>N </c><c>   1</c></rc>
    <rc><c>N </c><c>   1</c></rc>
    <rc><c>N </c><c>   1</c></rc>
    <rc><c>N </c><c>   1</c></rc>
    <rc><c>N </c><c>   1</c></rc>
    <rc><c>N </c><c>   1</c></rc>
    <rc><c>N </c><c>   1</c></rc>
    <rc><c>N </c><c>   1</c></rc>
    <rc><c>N </c><c>   1</c></rc>
    <rc><c>N </c><c>   1</c></rc>
    <rc><c>N </c><c>   1</c></rc>
    <rc><c>N </c><c>   1</c></rc>
    <rc><c>N </c><c>   1</c></rc>
    <rc><c>N </c><c>   1</c></rc>
    <rc><c>N </c><c>   1</c></rc>
    <rc><c>N </c><c>   1</c></rc>
    <rc><c>N </c><c>   1</c></rc>
    <rc><c>N </c><c>   1</c></rc>
    <rc><c>N </c><c>   1</c></rc>
    <rc><c>N </c><c>   1</c></rc>
    <rc><c>N </c><c>   1</c></rc>
    <rc><c>N </c><c>   1</c></rc>
    <rc><c>N </c><c>   1</c></rc>
    <rc><c>N </c><c>   1</c></rc>
    <rc><c>N </c><c>   1</c></rc>
    <rc><c>N </c><c>   1</c></rc>
    <rc><c>N </c><c>   1</c></rc>
    <rc><c>N </c><c>   1</c></rc>
    <rc><c>H </c><c>   2</c></rc>
    <rc><c>H </c><c>   2</c></rc>
    <rc><c>H </c><c>   2</c></rc>
    <rc><c>H </c><c>   2</c></rc>
    <rc><c>H </c><c>   2</c></rc>
    <rc><c>H </c><c>   2</c></rc>
    <rc><c>H </c><c>   2</c></rc>
    <rc><c>H </c><c>   2</c></rc>
    <rc><c>H </c><c>   2</c></rc>
    <rc><c>H </c><c>   2</c></rc>
    <rc><c>H </c><c>   2</c></rc>
    <rc><c>H </c><c>   2</c></rc>
    <rc><c>H </c><c>   2</c></rc>
    <rc><c>H </c><c>   2</c></rc>
    <rc><c>H </c><c>   2</c></rc>
    <rc><c>H </c><c>   2</c></rc>
    <rc><c>H </c><c>   2</c></rc>
    <rc><c>H </c><c>   2</c></rc>
    <rc><c>H </c><c>   2</c></rc>
    <rc><c>H </c><c>   2</c></rc>
    <rc><c>H </c><c>   2</c></rc>
    <rc><c>H </c><c>   2</c></rc>
    <rc><c>H </c><c>   2</c></rc>
    <rc><c>H </c><c>   2</c></rc>
    <rc><c>H </c><c>   2</c></rc>
    <rc><c>H </c><c>   2</c></rc>
    <rc><c>H </c><c>   2</c></rc>
    <rc><c>H </c><c>   2</c></rc>
    <rc><c>H </c><c>   2</c></rc>
    <rc><c>H </c><c>   2</c></rc>
    <rc><c>H </c><c>   2</c></rc>
    <rc><c>H </c><c>   2</c></rc>
    <rc><c>H </c><c>   2</c></rc>
    <rc><c>H </c><c>   2</c></rc>
    <rc><c>H </c><c>   2</c></rc>
    <rc><c>H </c><c>   2</c></rc>
    <rc><c>H </c><c>   2</c></rc>
    <rc><c>H </c><c>   2</c></rc>
    <rc><c>H </c><c>   2</c></rc>
    <rc><c>H </c><c>   2</c></rc>
    <rc><c>H </c><c>   2</c></rc>
    <rc><c>H </c><c>   2</c></rc>
    <rc><c>H </c><c>   2</c></rc>
    <rc><c>H </c><c>   2</c></rc>
    <rc><c>H </c><c>   2</c></rc>
    <rc><c>H </c><c>   2</c></rc>
    <rc><c>H </c><c>   2</c></rc>
    <rc><c>H </c><c>   2</c></rc>
    <rc><c>H </c><c>   2</c></rc>
    <rc><c>H </c><c>   2</c></rc>
    <rc><c>H </c><c>   2</c></rc>
    <rc><c>H </c><c>   2</c></rc>
    <rc><c>H </c><c>   2</c></rc>
    <rc><c>H </c><c>   2</c></rc>
    <rc><c>H </c><c>   2</c></rc>
    <rc><c>H </c><c>   2</c></rc>
    <rc><c>H </c><c>   2</c></rc>
    <rc><c>H </c><c>   2</c></rc>
    <rc><c>H </c><c>   2</c></rc>
    <rc><c>H </c><c>   2</c></rc>
    <rc><c>H </c><c>   2</c></rc>
    <rc><c>H </c><c>   2</c></rc>
    <rc><c>H </c><c>   2</c></rc>
    <rc><c>H </c><c>   2</c></rc>
    <rc><c>H </c><c>   2</c></rc>
    <rc><c>H </c><c>   2</c></rc>
    <rc><c>H </c><c>   2</c></rc>
    <rc><c>H </c><c>   2</c></rc>
    <rc><c>H </c><c>   2</c></rc>
    <rc><c>H </c><c>   2</c></rc>
    <rc><c>H </c><c>   2</c></rc>
    <rc><c>H </c><c>   2</c></rc>
    <rc><c>C </c><c>   3</c></rc>
    <rc><c>C </c><c>   3</c></rc>
    <rc><c>C </c><c>   3</c></rc>
    <rc><c>C </c><c>   3</c></rc>
    <rc><c>C </c><c>   3</c></rc>
    <rc><c>C </c><c>   3</c></rc>
    <rc><c>C </c><c>   3</c></rc>
    <rc><c>C </c><c>   3</c></rc>
    <rc><c>C </c><c>   3</c></rc>
    <rc><c>C </c><c>   3</c></rc>
    <rc><c>C </c><c>   3</c></rc>
    <rc><c>C </c><c>   3</c></rc>
    <rc><c>C </c><c>   3</c></rc>
    <rc><c>C </c><c>   3</c></rc>
    <rc><c>C </c><c>   3</c></rc>
    <rc><c>C </c><c>   3</c></rc>
    <rc><c>C </c><c>   3</c></rc>
    <rc><c>C </c><c>   3</c></rc>
    <rc><c>C </c><c>   3</c></rc>
    <rc><c>C </c><c>   3</c></rc>
    <rc><c>C </c><c>   3</c></rc>
    <rc><c>C </c><c>   3</c></rc>
    <rc><c>C </c><c>   3</c></rc>
    <rc><c>C </c><c>   3</c></rc>
    <rc><c>C </c><c>   3</c></rc>
    <rc><c>C </c><c>   3</c></rc>
    <rc><c>C </c><c>   3</c></rc>
    <rc><c>C </c><c>   3</c></rc>
    <rc><c>C </c><c>   3</c></rc>
    <rc><c>C </c><c>   3</c></rc>
    <rc><c>C </c><c>   3</c></rc>
    <rc><c>C </c><c>   3</c></rc>
    <rc><c>C </c><c>   3</c></rc>
    <rc><c>C </c><c>   3</c></rc>
    <rc><c>C </c><c>   3</c></rc>
    <rc><c>C </c><c>   3</c></rc>
    <rc><c>C </c><c>   3</c></rc>
    <rc><c>C </c><c>   3</c></rc>
    <rc><c>C </c><c>   3</c></rc>
    <rc><c>C </c><c>   3</c></rc>
    <rc><c>C </c><c>   3</c></rc>
    <rc><c>C </c><c>   3</c></rc>
    <rc><c>C </c><c>   3</c></rc>
    <rc><c>C </c><c>   3</c></rc>
    <rc><c>C </c><c>   3</c></rc>
    <rc><c>C </c><c>   3</c></rc>
    <rc><c>C </c><c>   3</c></rc>
    <rc><c>C </c><c>   3</c></rc>
    <rc><c>C </c><c>   3</c></rc>
    <rc><c>C </c><c>   3</c></rc>
    <rc><c>C </c><c>   3</c></rc>
    <rc><c>C </c><c>   3</c></rc>
    <rc><c>C </c><c>   3</c></rc>
    <rc><c>C </c><c>   3</c></rc>
    <rc><c>C </c><c>   3</c></rc>
    <rc><c>C </c><c>   3</c></rc>
    <rc><c>C </c><c>   3</c></rc>
    <rc><c>C </c><c>   3</c></rc>
    <rc><c>C </c><c>   3</c></rc>
    <rc><c>C </c><c>   3</c></rc>
    <rc><c>C </c><c>   3</c></rc>
    <rc><c>C </c><c>   3</c></rc>
    <rc><c>C </c><c>   3</c></rc>
    <rc><c>C </c><c>   3</c></rc>
    <rc><c>C </c><c>   3</c></rc>
    <rc><c>C </c><c>   3</c></rc>
    <rc><c>C </c><c>   3</c></rc>
    <rc><c>C </c><c>   3</c></rc>
    <rc><c>C </c><c>   3</c></rc>
    <rc><c>C </c><c>   3</c></rc>
    <rc><c>C </c><c>   3</c></rc>
    <rc><c>C </c><c>   3</c></rc>
    <rc><c>C </c><c>   3</c></rc>
    <rc><c>C </c><c>   3</c></rc>
    <rc><c>C </c><c>   3</c></rc>
    <rc><c>C </c><c>   3</c></rc>
    <rc><c>C </c><c>   3</c></rc>
    <rc><c>C </c><c>   3</c></rc>
    <rc><c>C </c><c>   3</c></rc>
    <rc><c>C </c><c>   3</c></rc>
    <rc><c>C </c><c>   3</c></rc>
    <rc><c>C </c><c>   3</c></rc>
    <rc><c>C </c><c>   3</c></rc>
    <rc><c>C </c><c>   3</c></rc>
    <rc><c>C </c><c>   3</c></rc>
    <rc><c>C </c><c>   3</c></rc>
    <rc><c>C </c><c>   3</c></rc>
    <rc><c>C </c><c>   3</c></rc>
    <rc><c>C </c><c>   3</c></rc>
    <rc><c>C </c><c>   3</c></rc>
    <rc><c>C </c><c>   3</c></rc>
    <rc><c>C </c><c>   3</c></rc>
    <rc><c>C </c><c>   3</c></rc>
    <rc><c>C </c><c>   3</c></rc>
    <rc><c>C </c><c>   3</c></rc>
    <rc><c>C </c><c>   3</c></rc>
    <rc><c>C </c><c>   3</c></rc>
    <rc><c>C </c><c>   3</c></rc>
    <rc><c>C </c><c>   3</c></rc>
    <rc><c>C </c><c>   3</c></rc>
    <rc><c>C </c><c>   3</c></rc>
    <rc><c>C </c><c>   3</c></rc>
    <rc><c>C </c><c>   3</c></rc>
    <rc><c>C </c><c>   3</c></rc>
    <rc><c>C </c><c>   3</c></rc>
    <rc><c>C </c><c>   3</c></rc>
    <rc><c>C </c><c>   3</c></rc>
    <rc><c>C </c><c>   3</c></rc>
    <rc><c>C </c><c>   3</c></rc>
    <rc><c>C </c><c>   3</c></rc>
    <rc><c>C </c><c>   3</c></rc>
    <rc><c>C </c><c>   3</c></rc>
    <rc><c>C </c><c>   3</c></rc>
    <rc><c>C </c><c>   3</c></rc>
    <rc><c>C </c><c>   3</c></rc>
    <rc><c>C </c><c>   3</c></rc>
    <rc><c>C </c><c>   3</c></rc>
    <rc><c>C </c><c>   3</c></rc>
    <rc><c>C </c><c>   3</c></rc>
    <rc><c>C </c><c>   3</c></rc>
    <rc><c>C </c><c>   3</c></rc>
    <rc><c>C </c><c>   3</c></rc>
    <rc><c>C </c><c>   3</c></rc>
    <rc><c>C </c><c>   3</c></rc>
    <rc><c>C </c><c>   3</c></rc>
    <rc><c>C </c><c>   3</c></rc>
    <rc><c>C </c><c>   3</c></rc>
    <rc><c>C </c><c>   3</c></rc>
    <rc><c>C </c><c>   3</c></rc>
    <rc><c>C </c><c>   3</c></rc>
    <rc><c>C </c><c>   3</c></rc>
    <rc><c>C </c><c>   3</c></rc>
    <rc><c>C </c><c>   3</c></rc>
    <rc><c>C </c><c>   3</c></rc>
    <rc><c>C </c><c>   3</c></rc>
    <rc><c>C </c><c>   3</c></rc>
    <rc><c>C </c><c>   3</c></rc>
    <rc><c>C </c><c>   3</c></rc>
    <rc><c>C </c><c>   3</c></rc>
    <rc><c>C </c><c>   3</c></rc>
    <rc><c>C </c><c>   3</c></rc>
    <rc><c>C </c><c>   3</c></rc>
    <rc><c>C </c><c>   3</c></rc>
    <rc><c>C </c><c>   3</c></rc>
   </set>
  </array>
  <array name="atomtypes" >
   <dimension dim="1">type</dimension>
   <field type="int">atomspertype</field>
   <field type="string">element</field>
   <field>mass</field>
   <field>valence</field>
   <field type="string">pseudopotential</field>
   <set>
    <rc><c>  36</c><c>N </c><c>     14.00100000</c><c>      5.00000000</c><c>  PAW_PBE N 08Apr2002                   </c></rc>
    <rc><c>  72</c><c>H </c><c>      1.00000000</c><c>      1.00000000</c><c>  PAW_PBE H 15Jun2001                   </c></rc>
    <rc><c> 144</c><c>C </c><c>     12.01100000</c><c>      4.00000000</c><c>  PAW_PBE C 08Apr2002                   </c></rc>
   </set>
  </array>
 </atominfo>
 <structure name="initialpos" >
  <crystal>
   <varray name="basis" >
    <v>      33.98673980       0.01574315       0.00000000 </v>
    <v>      -0.14375179      33.90331305       0.00000000 </v>
    <v>       0.00000000       0.00000000      20.00000000 </v>
   </varray>
   <i name="volume">  23045.30684594 </i>
   <varray name="rec_basis" >
    <v>       0.02942318       0.00012476       0.00000000 </v>
    <v>      -0.00001366       0.02949558       0.00000000 </v>
    <v>       0.00000000       0.00000000       0.05000000 </v>
   </varray>
  </crystal>
  <varray name="positions" >
   <v>       0.00621756       0.53388429       0.48438938 </v>
   <v>       0.03377333       0.50622508       0.48382529 </v>
   <v>       0.46639427       0.00623863       0.48292015 </v>
   <v>       0.49408582       0.03397581       0.48188587 </v>
   <v>       0.53335184       0.18230976       0.48912271 </v>
   <v>       0.52434561       0.22037449       0.48999999 </v>
   <v>       0.40732989       0.80300982       0.48987174 </v>
   <v>       0.41608444       0.76497780       0.48989721 </v>
   <v>       0.19559335       0.40861623       0.48479120 </v>
   <v>       0.23367162       0.41685149       0.48527616 </v>
   <v>       0.80311261       0.59058401       0.48729188 </v>
   <v>       0.76502435       0.58227108       0.48764239 </v>
   <v>       0.58278143       0.41971082       0.45027236 </v>
   <v>       0.60470057       0.45185004       0.45060314 </v>
   <v>       0.41567282       0.58007046       0.44851822 </v>
   <v>       0.39414688       0.54768950       0.44821749 </v>
   <v>       0.41664448       0.41119337       0.44217623 </v>
   <v>       0.44849651       0.38918041       0.44233234 </v>
   <v>       0.58192402       0.58779427       0.44685505 </v>
   <v>       0.54979606       0.60937667       0.44707053 </v>
   <v>       0.96626043       0.68203162       0.50424445 </v>
   <v>       0.97498473       0.72022687       0.50250731 </v>
   <v>       0.09233763       0.30287155       0.50504585 </v>
   <v>       0.08381033       0.26476610       0.50273968 </v>
   <v>       0.30384512       0.90852796       0.50889721 </v>
   <v>       0.26582924       0.91670074       0.50647680 </v>
   <v>       0.68361608       0.03298394       0.50267518 </v>
   <v>       0.72158216       0.02395276       0.50079166 </v>
   <v>       0.91346632       0.91718651       0.54421297 </v>
   <v>       0.89133122       0.94901719       0.54435663 </v>
   <v>       0.08616243       0.08074413       0.54218686 </v>
   <v>       0.10773406       0.04857417       0.54256681 </v>
   <v>       0.08128245       0.91356670       0.54396919 </v>
   <v>       0.04907666       0.89179311       0.54397303 </v>
   <v>       0.91921654       0.08415583       0.54058923 </v>
   <v>       0.95132162       0.10605710       0.54064657 </v>
   <v>       0.89280137       0.51701980       0.51773182 </v>
   <v>       0.98219145       0.60624518       0.49301684 </v>
   <v>       0.85899221       0.63772715       0.49335581 </v>
   <v>       0.10468293       0.48283307       0.51161329 </v>
   <v>       0.01715367       0.39203535       0.49435483 </v>
   <v>       0.13999072       0.36091609       0.49333287 </v>
   <v>       0.48145037       0.89160036       0.51637045 </v>
   <v>       0.39568315       0.98306673       0.49326131 </v>
   <v>       0.35900830       0.86080236       0.49984039 </v>
   <v>       0.51832131       0.10597107       0.51100616 </v>
   <v>       0.60885134       0.01758454       0.48852713 </v>
   <v>       0.64006140       0.14028851       0.49394229 </v>
   <v>       0.02167156       0.78000256       0.48766003 </v>
   <v>       0.89777914       0.80567953       0.48391192 </v>
   <v>       0.98116655       0.89936718       0.51697580 </v>
   <v>       0.97777797       0.21623572       0.48385517 </v>
   <v>       0.10242450       0.19405433       0.48587764 </v>
   <v>       0.02009694       0.09809978       0.51271933 </v>
   <v>       0.21752704       0.02227995       0.48626923 </v>
   <v>       0.19499859       0.89726460       0.48975870 </v>
   <v>       0.09950189       0.97953993       0.51523358 </v>
   <v>       0.78068113       0.97672013       0.48604009 </v>
   <v>       0.80800666       0.10083211       0.48214892 </v>
   <v>       0.90031604       0.01674652       0.51460938 </v>
   <v>       0.47712142       0.27884842       0.50192832 </v>
   <v>       0.60044734       0.30804539       0.50813148 </v>
   <v>       0.51541930       0.39931011       0.47364920 </v>
   <v>       0.52191870       0.71832203       0.50876682 </v>
   <v>       0.39771393       0.69320312       0.50506178 </v>
   <v>       0.48155341       0.59952936       0.47532886 </v>
   <v>       0.28367000       0.52219717       0.50382897 </v>
   <v>       0.30383441       0.39698778       0.50003970 </v>
   <v>       0.40073733       0.47819145       0.47294271 </v>
   <v>       0.71505937       0.47704605       0.50745110 </v>
   <v>       0.69461320       0.60229336       0.50428807 </v>
   <v>       0.59788453       0.52100411       0.47726571 </v>
   <v>       0.88069319       0.68207178       0.41753740 </v>
   <v>       0.89742421       0.75413780       0.41341319 </v>
   <v>       0.01247125       0.34000257       0.42609007 </v>
   <v>       0.99638018       0.26791661       0.42159242 </v>
   <v>       0.34101327       0.98905724       0.43047436 </v>
   <v>       0.26910754       0.00439447       0.42544323 </v>
   <v>       0.68502988       0.11946872       0.41810009 </v>
   <v>       0.75664528       0.10221977       0.41387165 </v>
   <v>       0.86144504       0.85984447       0.43692542 </v>
   <v>       0.81906133       0.92038467       0.43801157 </v>
   <v>       0.14015998       0.13825361       0.43801846 </v>
   <v>       0.18096529       0.07660594       0.43762718 </v>
   <v>       0.13974889       0.85804351       0.44457937 </v>
   <v>       0.07836273       0.81657977       0.44447002 </v>
   <v>       0.86269018       0.13644428       0.43302804 </v>
   <v>       0.92391841       0.17815748       0.43312455 </v>
   <v>       0.93619651       0.48729746       0.57592453 </v>
   <v>       0.98748576       0.43447643       0.57204215 </v>
   <v>       0.51465500       0.93465077       0.56774629 </v>
   <v>       0.56740136       0.98619339       0.56282867 </v>
   <v>       0.61992128       0.18468183       0.57274242 </v>
   <v>       0.60254869       0.25648506       0.57554891 </v>
   <v>       0.48405999       0.83879486       0.57966500 </v>
   <v>       0.50099969       0.76696320       0.57860010 </v>
   <v>       0.16046457       0.48901592       0.56547853 </v>
   <v>       0.23243196       0.50457879       0.56643792 </v>
   <v>       0.83792721       0.51167898       0.57236676 </v>
   <v>       0.76602258       0.49579698       0.57246268 </v>
   <v>       0.63497704       0.36241990       0.55682317 </v>
   <v>       0.67681238       0.42357360       0.55719471 </v>
   <v>       0.36056707       0.63778100       0.54999691 </v>
   <v>       0.31981354       0.57588593       0.55035882 </v>
   <v>       0.35856578       0.35794791       0.54639461 </v>
   <v>       0.41940041       0.31595217       0.54660524 </v>
   <v>       0.63878535       0.64026762       0.55409983 </v>
   <v>       0.57730356       0.68125309       0.55531764 </v>
   <v>       0.92192873       0.62664678       0.49034532 </v>
   <v>       0.88223624       0.61575469       0.49634605 </v>
   <v>       0.87136422       0.57642345       0.50783426 </v>
   <v>       0.90097795       0.54799875       0.51267989 </v>
   <v>       0.94091090       0.55830577       0.50796483 </v>
   <v>       0.95130406       0.59787724       0.49686988 </v>
   <v>       0.07742545       0.37178534       0.49138464 </v>
   <v>       0.11700508       0.38312166       0.49622903 </v>
   <v>       0.12733355       0.42295053       0.50452232 </v>
   <v>       0.09765978       0.45153138       0.50750809 </v>
   <v>       0.05794159       0.44050143       0.50479022 </v>
   <v>       0.04810106       0.40063436       0.49669389 </v>
   <v>       0.37255195       0.92305565       0.49424349 </v>
   <v>       0.38217116       0.88303814       0.50148119 </v>
   <v>       0.42133274       0.87162691       0.51093128 </v>
   <v>       0.45078167       0.90063403       0.51275550 </v>
   <v>       0.44177191       0.94076147       0.50673669 </v>
   <v>       0.40239569       0.95173951       0.49716372 </v>
   <v>       0.62890447       0.07767860       0.48889162 </v>
   <v>       0.61764132       0.11718926       0.49558227 </v>
   <v>       0.57811360       0.12771817       0.50447367 </v>
   <v>       0.54920687       0.09812099       0.50545356 </v>
   <v>       0.56014438       0.05829943       0.50133263 </v>
   <v>       0.59990574       0.04830691       0.49321628 </v>
   <v>       0.93583319       0.85600091       0.49945886 </v>
   <v>       0.97493525       0.86840396       0.50697657 </v>
   <v>       0.00633005       0.84180514       0.50150647 </v>
   <v>       0.99818896       0.80179418       0.49008602 </v>
   <v>       0.95906460       0.78870210       0.48326423 </v>
   <v>       0.92816128       0.81603872       0.48721010 </v>
   <v>       0.06499564       0.14236386       0.49845714 </v>
   <v>       0.02595282       0.12922735       0.50361463 </v>
   <v>       0.99435066       0.15527565       0.49688708 </v>
   <v>       0.00213770       0.19538780       0.48621588 </v>
   <v>       0.04109478       0.20930287       0.48277266 </v>
   <v>       0.07246151       0.18252427       0.48815092 </v>
   <v>       0.14344321       0.93457619       0.50156641 </v>
   <v>       0.13052777       0.97373260       0.50622069 </v>
   <v>       0.15667359       0.00549584       0.49936037 </v>
   <v>       0.19664111       0.99779416       0.48879064 </v>
   <v>       0.21039486       0.95880761       0.48572964 </v>
   <v>       0.18355254       0.92725031       0.49149441 </v>
   <v>       0.85765688       0.06236719       0.49704132 </v>
   <v>       0.86948424       0.02313929       0.50482299 </v>
   <v>       0.84250581       0.99187065       0.49974745 </v>
   <v>       0.80267962       0.00018314       0.48845501 </v>
   <v>       0.79014649       0.03949753       0.48175877 </v>
   <v>       0.81787691       0.07029317       0.48533493 </v>
   <v>       0.56146938       0.35728760       0.49229504 </v>
   <v>       0.52221660       0.36852182       0.48366078 </v>
   <v>       0.49139757       0.34098814       0.48815654 </v>
   <v>       0.50019623       0.30125334       0.49989952 </v>
   <v>       0.53953880       0.28928701       0.50750007 </v>
   <v>       0.56987491       0.31751759       0.50432320 </v>
   <v>       0.43596568       0.64250936       0.49110693 </v>
   <v>       0.47521352       0.63040835       0.48541579 </v>
   <v>       0.50639858       0.65715060       0.49287155 </v>
   <v>       0.49795982       0.69687721       0.50533169 </v>
   <v>       0.45877174       0.70973837       0.50924755 </v>
   <v>       0.42784568       0.68237511       0.50256438 </v>
   <v>       0.35591513       0.43375322       0.48717985 </v>
   <v>       0.36965021       0.47271934       0.48239115 </v>
   <v>       0.34416454       0.50479041       0.48983604 </v>
   <v>       0.30411137       0.49750833       0.50094769 </v>
   <v>       0.28967993       0.45869363       0.50427734 </v>
   <v>       0.31581024       0.42684532       0.49804420 </v>
   <v>       0.64263847       0.56543368       0.49164706 </v>
   <v>       0.62898897       0.52647247       0.48655419 </v>
   <v>       0.65449098       0.49442127       0.49371003 </v>
   <v>       0.69457009       0.50171861       0.50470453 </v>
   <v>       0.70896096       0.54058508       0.50796834 </v>
   <v>       0.68274767       0.57239828       0.50214685 </v>
   <v>       0.94963534       0.74634304       0.47515150 </v>
   <v>       0.91560978       0.73345411       0.44134879 </v>
   <v>       0.90642361       0.69379808       0.44347243 </v>
   <v>       0.93183555       0.66868090       0.47897185 </v>
   <v>       0.04915415       0.25203472       0.47708566 </v>
   <v>       0.02266930       0.27853585       0.44727755 </v>
   <v>       0.03152467       0.31829059       0.44979429 </v>
   <v>       0.06654140       0.32989597       0.48189377 </v>
   <v>       0.25310548       0.95117756       0.48034226 </v>
   <v>       0.27962906       0.97800970       0.45087771 </v>
   <v>       0.31933592       0.96955228       0.45356916 </v>
   <v>       0.33085438       0.93443556       0.48536566 </v>
   <v>       0.74805187       0.04936250       0.47411812 </v>
   <v>       0.73571853       0.08393116       0.44134313 </v>
   <v>       0.69631917       0.09343448       0.44361664 </v>
   <v>       0.67077494       0.06782429       0.47821353 </v>
   <v>       0.85920055       0.95161524       0.50449755 </v>
   <v>       0.84592749       0.91887332       0.46776557 </v>
   <v>       0.86935903       0.88542325       0.46727545 </v>
   <v>       0.90468831       0.88630458       0.50378782 </v>
   <v>       0.14002023       0.04568137       0.50316776 </v>
   <v>       0.15404092       0.07842350       0.46716703 </v>
   <v>       0.13148500       0.11246825       0.46722602 </v>
   <v>       0.09592443       0.11183500       0.50294236 </v>
   <v>       0.04659384       0.85866466       0.50630052 </v>
   <v>       0.07973974       0.84420759       0.47235919 </v>
   <v>       0.11369686       0.86713978       0.47238262 </v>
   <v>       0.11279441       0.90342068       0.50627291 </v>
   <v>       0.95431902       0.13817352       0.50061986 </v>
   <v>       0.92188929       0.15149991       0.46352169 </v>
   <v>       0.88808110       0.12844490       0.46347719 </v>
   <v>       0.88842387       0.09325460       0.50056631 </v>
   <v>       0.02667167       0.47041491       0.51108997 </v>
   <v>       0.99151960       0.46235684       0.54566200 </v>
   <v>       0.96326919       0.49142239       0.54750076 </v>
   <v>       0.97093559       0.52698583       0.51341294 </v>
   <v>       0.53024616       0.02663221       0.50694737 </v>
   <v>       0.53894614       0.99075472       0.53890596 </v>
   <v>       0.50988350       0.96232057       0.54127765 </v>
   <v>       0.47362897       0.97050621       0.51026106 </v>
   <v>       0.54970100       0.24721008       0.51583741 </v>
   <v>       0.58430011       0.23524853       0.54865079 </v>
   <v>       0.59385243       0.19575287       0.54718552 </v>
   <v>       0.56818329       0.16980849       0.51358771 </v>
   <v>       0.45007174       0.75210024       0.51741142 </v>
   <v>       0.47537472       0.77801050       0.55176051 </v>
   <v>       0.46607958       0.81759367       0.55216587 </v>
   <v>       0.43205903       0.82963694       0.51776615 </v>
   <v>       0.24702806       0.45130032       0.51096799 </v>
   <v>       0.22127412       0.47815706       0.54167590 </v>
   <v>       0.18154453       0.46955897       0.54117145 </v>
   <v>       0.16924883       0.43440195       0.51006600 </v>
   <v>       0.75159736       0.54814317       0.51448688 </v>
   <v>       0.77730039       0.52182356       0.54665925 </v>
   <v>       0.81698611       0.53058841       0.54649531 </v>
   <v>       0.82946191       0.56524518       0.51392044 </v>
   <v>       0.63696546       0.45447707       0.49013086 </v>
   <v>       0.65016272       0.42180146       0.52689083 </v>
   <v>       0.62705766       0.38799748       0.52663111 </v>
   <v>       0.59195522       0.38850093       0.48952016 </v>
   <v>       0.36133765       0.54488408       0.48636144 </v>
   <v>       0.34700806       0.57771557       0.52150978 </v>
   <v>       0.36954151       0.61190926       0.52146847 </v>
   <v>       0.40540814       0.61140505       0.48659842 </v>
[...]
       <r>    -4.0225     0.0000   828.0000 </r>
       <r>    -3.9250     0.0000   828.0000 </r>
       <r>    -3.8274     0.0000   828.0000 </r>
       <r>    -3.7299     0.0000   828.0000 </r>
       <r>    -3.6324     0.0000   828.0000 </r>
       <r>    -3.5349     0.0000   828.0000 </r>
       <r>    -3.4374     0.0000   828.0000 </r>
       <r>    -3.3399     0.0000   828.0000 </r>
       <r>    -3.2423     0.0000   828.0000 </r>
       <r>    -3.1448     0.0000   828.0000 </r>
       <r>    -3.0473     0.0000   828.0000 </r>
       <r>    -2.9498     0.0000   828.0000 </r>
       <r>    -2.8523     0.0000   828.0000 </r>
       <r>    -2.7547     0.0000   828.0000 </r>
       <r>    -2.6572     0.0000   828.0000 </r>
       <r>    -2.5597    12.1491   829.1848 </r>
       <r>    -2.4622    61.4369   835.9922 </r>
       <r>    -2.3647    82.0250   843.9995 </r>
       <r>    -2.2672    45.0795   848.3961 </r>
       <r>    -2.1696    79.2035   858.3767 </r>
       <r>    -2.0721   112.8286   871.3560 </r>
       <r>    -1.9746    79.6778   881.9041 </r>
       <r>    -1.8771    48.3387   888.7139 </r>
       <r>    -1.7796    72.9732   898.1348 </r>
       <r>    -1.6820     6.3152   900.0000 </r>
       <r>    -1.5845     0.0000   900.0000 </r>
       <r>    -1.4870     0.0000   900.0000 </r>
       <r>    -1.3895     0.0000   900.0000 </r>
       <r>    -1.2920     0.0000   900.0000 </r>
       <r>    -1.1945     0.0000   900.0000 </r>
       <r>    -1.0969    39.4009   903.8423 </r>
       <r>    -0.9994    49.8365   912.0463 </r>
       <r>    -0.9019    26.5443   915.4725 </r>
       <r>    -0.8044     2.7331   916.0000 </r>
       <r>    -0.7069    19.8202   917.9328 </r>
       <r>    -0.6093    18.2555   921.6139 </r>
       <r>    -0.5118    39.9194   925.5763 </r>
       <r>    -0.4143    37.8935   930.1790 </r>
       <r>    -0.3168    24.2554   933.1172 </r>
       <r>    -0.2193    81.4970   941.6649 </r>
       <r>    -0.1218    48.0998   947.3575 </r>
       <r>    -0.0242    30.5103   951.7427 </r>
       <r>     0.0733    19.9631   953.9468 </r>
       <r>     0.1708    90.5979   962.9859 </r>
       <r>     0.2683    74.0482   971.4720 </r>
       <r>     0.3658    85.2780   981.1518 </r>
       <r>     0.4634    67.1175   988.8639 </r>
       <r>     0.5609    66.6865   996.5039 </r>
       <r>     0.6584    81.2042  1006.5570 </r>
       <r>     0.7559    84.0980  1016.8190 </r>
       <r>     0.8534   112.6749  1029.4235 </r>
       <r>     0.9510    92.7187  1041.0422 </r>
       <r>     1.0485   125.2904  1055.5200 </r>
       <r>     1.1460   124.8992  1070.6653 </r>
       <r>     1.2435   118.2982  1085.2043 </r>
       <r>     1.3410    11.0996  1088.0000 </r>
       <r>     1.4385     0.0000  1088.0000 </r>
       <r>     1.5361     0.0000  1088.0000 </r>
       <r>     1.6336     0.0000  1088.0000 </r>
       <r>     1.7311     0.0000  1088.0000 </r>
       <r>     1.8286     0.0000  1088.0000 </r>
       <r>     1.9261     0.0000  1088.0000 </r>
       <r>     2.0237     0.0000  1088.0000 </r>
       <r>     2.1212     0.0000  1088.0000 </r>
       <r>     2.2187     0.0000  1088.0000 </r>
       <r>     2.3162     0.0000  1088.0000 </r>
       <r>     2.4137     0.0000  1088.0000 </r>
       <r>     2.5112     0.0000  1088.0000 </r>
       <r>     2.6088     0.0000  1088.0000 </r>
      </set>
     </set>
    </array>
   </total>
  </dos>
 </calculation>
 <structure name="finalpos" >
  <crystal>
   <varray name="basis" >
    <v>      33.98673980       0.01574315       0.00000000 </v>
    <v>      -0.14375179      33.90331305       0.00000000 </v>
    <v>       0.00000000       0.00000000      20.00000000 </v>
   </varray>
   <i name="volume">  23045.30684594 </i>
   <varray name="rec_basis" >
    <v>       0.02942318       0.00012476       0.00000000 </v>
    <v>      -0.00001366       0.02949558       0.00000000 </v>
    <v>       0.00000000       0.00000000       0.05000000 </v>
   </varray>
  </crystal>
  <varray name="positions" >
   <v>       0.00621756       0.53388429       0.48438938 </v>
   <v>       0.03377333       0.50622508       0.48382529 </v>
   <v>       0.46639427       0.00623863       0.48292015 </v>
   <v>       0.49408582       0.03397581       0.48188587 </v>
   <v>       0.53335184       0.18230976       0.48912271 </v>
   <v>       0.52434561       0.22037449       0.48999999 </v>
   <v>       0.40732989       0.80300982       0.48987174 </v>
   <v>       0.41608444       0.76497780       0.48989721 </v>
   <v>       0.19559335       0.40861623       0.48479120 </v>
   <v>       0.23367162       0.41685149       0.48527616 </v>
   <v>       0.80311261       0.59058401       0.48729188 </v>
   <v>       0.76502435       0.58227108       0.48764239 </v>
   <v>       0.58278143       0.41971082       0.45027236 </v>
   <v>       0.60470057       0.45185004       0.45060314 </v>
   <v>       0.41567282       0.58007046       0.44851822 </v>
   <v>       0.39414688       0.54768950       0.44821749 </v>
   <v>       0.41664448       0.41119337       0.44217623 </v>
   <v>       0.44849651       0.38918041       0.44233234 </v>
   <v>       0.58192402       0.58779427       0.44685505 </v>
   <v>       0.54979606       0.60937667       0.44707053 </v>
   <v>       0.96626043       0.68203162       0.50424445 </v>
   <v>       0.97498473       0.72022687       0.50250731 </v>
   <v>       0.09233763       0.30287155       0.50504585 </v>
   <v>       0.08381033       0.26476610       0.50273968 </v>
   <v>       0.30384512       0.90852796       0.50889721 </v>
   <v>       0.26582924       0.91670074       0.50647680 </v>
   <v>       0.68361608       0.03298394       0.50267518 </v>
   <v>       0.72158216       0.02395276       0.50079166 </v>
   <v>       0.91346632       0.91718651       0.54421297 </v>
   <v>       0.89133122       0.94901719       0.54435663 </v>
   <v>       0.08616243       0.08074413       0.54218686 </v>
   <v>       0.10773406       0.04857417       0.54256681 </v>
   <v>       0.08128245       0.91356670       0.54396919 </v>
   <v>       0.04907666       0.89179311       0.54397303 </v>
   <v>       0.91921654       0.08415583       0.54058923 </v>
   <v>       0.95132162       0.10605710       0.54064657 </v>
   <v>       0.89280137       0.51701980       0.51773182 </v>
   <v>       0.98219145       0.60624518       0.49301684 </v>
   <v>       0.85899221       0.63772715       0.49335581 </v>
   <v>       0.10468293       0.48283307       0.51161329 </v>
   <v>       0.01715367       0.39203535       0.49435483 </v>
   <v>       0.13999072       0.36091609       0.49333287 </v>
   <v>       0.48145037       0.89160036       0.51637045 </v>
   <v>       0.39568315       0.98306673       0.49326131 </v>
   <v>       0.35900830       0.86080236       0.49984039 </v>
   <v>       0.51832131       0.10597107       0.51100616 </v>
   <v>       0.60885134       0.01758454       0.48852713 </v>
   <v>       0.64006140       0.14028851       0.49394229 </v>
   <v>       0.02167156       0.78000256       0.48766003 </v>
   <v>       0.89777914       0.80567953       0.48391192 </v>
   <v>       0.98116655       0.89936718       0.51697580 </v>
   <v>       0.97777797       0.21623572       0.48385517 </v>
   <v>       0.10242450       0.19405433       0.48587764 </v>
   <v>       0.02009694       0.09809978       0.51271933 </v>
   <v>       0.21752704       0.02227995       0.48626923 </v>
   <v>       0.19499859       0.89726460       0.48975870 </v>
   <v>       0.09950189       0.97953993       0.51523358 </v>
   <v>       0.78068113       0.97672013       0.48604009 </v>
   <v>       0.80800666       0.10083211       0.48214892 </v>
   <v>       0.90031604       0.01674652       0.51460938 </v>
   <v>       0.47712142       0.27884842       0.50192832 </v>
   <v>       0.60044734       0.30804539       0.50813148 </v>
   <v>       0.51541930       0.39931011       0.47364920 </v>
   <v>       0.52191870       0.71832203       0.50876682 </v>
   <v>       0.39771393       0.69320312       0.50506178 </v>
   <v>       0.48155341       0.59952936       0.47532886 </v>
   <v>       0.28367000       0.52219717       0.50382897 </v>
   <v>       0.30383441       0.39698778       0.50003970 </v>
   <v>       0.40073733       0.47819145       0.47294271 </v>
   <v>       0.71505937       0.47704605       0.50745110 </v>
   <v>       0.69461320       0.60229336       0.50428807 </v>
   <v>       0.59788453       0.52100411       0.47726571 </v>
   <v>       0.88069319       0.68207178       0.41753740 </v>
   <v>       0.89742421       0.75413780       0.41341319 </v>
   <v>       0.01247125       0.34000257       0.42609007 </v>
   <v>       0.99638018       0.26791661       0.42159242 </v>
   <v>       0.34101327       0.98905724       0.43047436 </v>
   <v>       0.26910754       0.00439447       0.42544323 </v>
   <v>       0.68502988       0.11946872       0.41810009 </v>
   <v>       0.75664528       0.10221977       0.41387165 </v>
   <v>       0.86144504       0.85984447       0.43692542 </v>
   <v>       0.81906133       0.92038467       0.43801157 </v>
   <v>       0.14015998       0.13825361       0.43801846 </v>
   <v>       0.18096529       0.07660594       0.43762718 </v>
   <v>       0.13974889       0.85804351       0.44457937 </v>
   <v>       0.07836273       0.81657977       0.44447002 </v>
   <v>       0.86269018       0.13644428       0.43302804 </v>
   <v>       0.92391841       0.17815748       0.43312455 </v>
   <v>       0.93619651       0.48729746       0.57592453 </v>
   <v>       0.98748576       0.43447643       0.57204215 </v>
   <v>       0.51465500       0.93465077       0.56774629 </v>
   <v>       0.56740136       0.98619339       0.56282867 </v>
   <v>       0.61992128       0.18468183       0.57274242 </v>
   <v>       0.60254869       0.25648506       0.57554891 </v>
   <v>       0.48405999       0.83879486       0.57966500 </v>
   <v>       0.50099969       0.76696320       0.57860010 </v>
   <v>       0.16046457       0.48901592       0.56547853 </v>
   <v>       0.23243196       0.50457879       0.56643792 </v>
   <v>       0.83792721       0.51167898       0.57236676 </v>
   <v>       0.76602258       0.49579698       0.57246268 </v>
   <v>       0.63497704       0.36241990       0.55682317 </v>
   <v>       0.67681238       0.42357360       0.55719471 </v>
   <v>       0.36056707       0.63778100       0.54999691 </v>
   <v>       0.31981354       0.57588593       0.55035882 </v>
   <v>       0.35856578       0.35794791       0.54639461 </v>
   <v>       0.41940041       0.31595217       0.54660524 </v>
   <v>       0.63878535       0.64026762       0.55409983 </v>
   <v>       0.57730356       0.68125309       0.55531764 </v>
   <v>       0.92192873       0.62664678       0.49034532 </v>
   <v>       0.88223624       0.61575469       0.49634605 </v>
   <v>       0.87136422       0.57642345       0.50783426 </v>
   <v>       0.90097795       0.54799875       0.51267989 </v>
   <v>       0.94091090       0.55830577       0.50796483 </v>
   <v>       0.95130406       0.59787724       0.49686988 </v>
   <v>       0.07742545       0.37178534       0.49138464 </v>
   <v>       0.11700508       0.38312166       0.49622903 </v>
   <v>       0.12733355       0.42295053       0.50452232 </v>
   <v>       0.09765978       0.45153138       0.50750809 </v>
   <v>       0.05794159       0.44050143       0.50479022 </v>
   <v>       0.04810106       0.40063436       0.49669389 </v>
   <v>       0.37255195       0.92305565       0.49424349 </v>
   <v>       0.38217116       0.88303814       0.50148119 </v>
   <v>       0.42133274       0.87162691       0.51093128 </v>
   <v>       0.45078167       0.90063403       0.51275550 </v>
   <v>       0.44177191       0.94076147       0.50673669 </v>
   <v>       0.40239569       0.95173951       0.49716372 </v>
   <v>       0.62890447       0.07767860       0.48889162 </v>
   <v>       0.61764132       0.11718926       0.49558227 </v>
   <v>       0.57811360       0.12771817       0.50447367 </v>
   <v>       0.54920687       0.09812099       0.50545356 </v>
   <v>       0.56014438       0.05829943       0.50133263 </v>
   <v>       0.59990574       0.04830691       0.49321628 </v>
   <v>       0.93583319       0.85600091       0.49945886 </v>
   <v>       0.97493525       0.86840396       0.50697657 </v>
   <v>       0.00633005       0.84180514       0.50150647 </v>
   <v>       0.99818896       0.80179418       0.49008602 </v>
   <v>       0.95906460       0.78870210       0.48326423 </v>
   <v>       0.92816128       0.81603872       0.48721010 </v>
   <v>       0.06499564       0.14236386       0.49845714 </v>
   <v>       0.02595282       0.12922735       0.50361463 </v>
   <v>       0.99435066       0.15527565       0.49688708 </v>
   <v>       0.00213770       0.19538780       0.48621588 </v>
   <v>       0.04109478       0.20930287       0.48277266 </v>
   <v>       0.07246151       0.18252427       0.48815092 </v>
   <v>       0.14344321       0.93457619       0.50156641 </v>
   <v>       0.13052777       0.97373260       0.50622069 </v>
   <v>       0.15667359       0.00549584       0.49936037 </v>
   <v>       0.19664111       0.99779416       0.48879064 </v>
   <v>       0.21039486       0.95880761       0.48572964 </v>
   <v>       0.18355254       0.92725031       0.49149441 </v>
   <v>       0.85765688       0.06236719       0.49704132 </v>
   <v>       0.86948424       0.02313929       0.50482299 </v>
   <v>       0.84250581       0.99187065       0.49974745 </v>
   <v>       0.80267962       0.00018314       0.48845501 </v>
   <v>       0.79014649       0.03949753       0.48175877 </v>
   <v>       0.81787691       0.07029317       0.48533493 </v>
   <v>       0.56146938       0.35728760       0.49229504 </v>
   <v>       0.52221660       0.36852182       0.48366078 </v>
   <v>       0.49139757       0.34098814       0.48815654 </v>
   <v>       0.50019623       0.30125334       0.49989952 </v>
   <v>       0.53953880       0.28928701       0.50750007 </v>
   <v>       0.56987491       0.31751759       0.50432320 </v>
   <v>       0.43596568       0.64250936       0.49110693 </v>
   <v>       0.47521352       0.63040835       0.48541579 </v>
   <v>       0.50639858       0.65715060       0.49287155 </v>
   <v>       0.49795982       0.69687721       0.50533169 </v>
   <v>       0.45877174       0.70973837       0.50924755 </v>
   <v>       0.42784568       0.68237511       0.50256438 </v>
   <v>       0.35591513       0.43375322       0.48717985 </v>
   <v>       0.36965021       0.47271934       0.48239115 </v>
   <v>       0.34416454       0.50479041       0.48983604 </v>
   <v>       0.30411137       0.49750833       0.50094769 </v>
   <v>       0.28967993       0.45869363       0.50427734 </v>
   <v>       0.31581024       0.42684532       0.49804420 </v>
   <v>       0.64263847       0.56543368       0.49164706 </v>
   <v>       0.62898897       0.52647247       0.48655419 </v>
   <v>       0.65449098       0.49442127       0.49371003 </v>
   <v>       0.69457009       0.50171861       0.50470453 </v>
   <v>       0.70896096       0.54058508       0.50796834 </v>
   <v>       0.68274767       0.57239828       0.50214685 </v>
   <v>       0.94963534       0.74634304       0.47515150 </v>
   <v>       0.91560978       0.73345411       0.44134879 </v>
   <v>       0.90642361       0.69379808       0.44347243 </v>
   <v>       0.93183555       0.66868090       0.47897185 </v>
   <v>       0.04915415       0.25203472       0.47708566 </v>
   <v>       0.02266930       0.27853585       0.44727755 </v>
   <v>       0.03152467       0.31829059       0.44979429 </v>
   <v>       0.06654140       0.32989597       0.48189377 </v>
   <v>       0.25310548       0.95117756       0.48034226 </v>
   <v>       0.27962906       0.97800970       0.45087771 </v>
   <v>       0.31933592       0.96955228       0.45356916 </v>
   <v>       0.33085438       0.93443556       0.48536566 </v>
   <v>       0.74805187       0.04936250       0.47411812 </v>
   <v>       0.73571853       0.08393116       0.44134313 </v>
   <v>       0.69631917       0.09343448       0.44361664 </v>
   <v>       0.67077494       0.06782429       0.47821353 </v>
   <v>       0.85920055       0.95161524       0.50449755 </v>
   <v>       0.84592749       0.91887332       0.46776557 </v>
   <v>       0.86935903       0.88542325       0.46727545 </v>
   <v>       0.90468831       0.88630458       0.50378782 </v>
   <v>       0.14002023       0.04568137       0.50316776 </v>
   <v>       0.15404092       0.07842350       0.46716703 </v>
   <v>       0.13148500       0.11246825       0.46722602 </v>
   <v>       0.09592443       0.11183500       0.50294236 </v>
   <v>       0.04659384       0.85866466       0.50630052 </v>
   <v>       0.07973974       0.84420759       0.47235919 </v>
   <v>       0.11369686       0.86713978       0.47238262 </v>
   <v>       0.11279441       0.90342068       0.50627291 </v>
   <v>       0.95431902       0.13817352       0.50061986 </v>
   <v>       0.92188929       0.15149991       0.46352169 </v>
   <v>       0.88808110       0.12844490       0.46347719 </v>
   <v>       0.88842387       0.09325460       0.50056631 </v>
   <v>       0.02667167       0.47041491       0.51108997 </v>
   <v>       0.99151960       0.46235684       0.54566200 </v>
   <v>       0.96326919       0.49142239       0.54750076 </v>
   <v>       0.97093559       0.52698583       0.51341294 </v>
   <v>       0.53024616       0.02663221       0.50694737 </v>
   <v>       0.53894614       0.99075472       0.53890596 </v>
   <v>       0.50988350       0.96232057       0.54127765 </v>
   <v>       0.47362897       0.97050621       0.51026106 </v>
   <v>       0.54970100       0.24721008       0.51583741 </v>
   <v>       0.58430011       0.23524853       0.54865079 </v>
   <v>       0.59385243       0.19575287       0.54718552 </v>
   <v>       0.56818329       0.16980849       0.51358771 </v>
   <v>       0.45007174       0.75210024       0.51741142 </v>
   <v>       0.47537472       0.77801050       0.55176051 </v>
   <v>       0.46607958       0.81759367       0.55216587 </v>
   <v>       0.43205903       0.82963694       0.51776615 </v>
   <v>       0.24702806       0.45130032       0.51096799 </v>
   <v>       0.22127412       0.47815706       0.54167590 </v>
   <v>       0.18154453       0.46955897       0.54117145 </v>
   <v>       0.16924883       0.43440195       0.51006600 </v>
   <v>       0.75159736       0.54814317       0.51448688 </v>
   <v>       0.77730039       0.52182356       0.54665925 </v>
   <v>       0.81698611       0.53058841       0.54649531 </v>
   <v>       0.82946191       0.56524518       0.51392044 </v>
   <v>       0.63696546       0.45447707       0.49013086 </v>
   <v>       0.65016272       0.42180146       0.52689083 </v>
   <v>       0.62705766       0.38799748       0.52663111 </v>
   <v>       0.59195522       0.38850093       0.48952016 </v>
   <v>       0.36133765       0.54488408       0.48636144 </v>
   <v>       0.34700806       0.57771557       0.52150978 </v>
   <v>       0.36954151       0.61190926       0.52146847 </v>
   <v>       0.40540814       0.61140505       0.48659842 </v>
   <v>       0.45102788       0.35700374       0.48219929 </v>
   <v>       0.41805786       0.34314317       0.51752565 </v>
   <v>       0.38446480       0.36633590       0.51738898 </v>
   <v>       0.38566289       0.40210274       0.48196863 </v>
   <v>       0.54667283       0.64103512       0.48805961 </v>
   <v>       0.57923616       0.65466834       0.52475859 </v>
   <v>       0.61318097       0.63202641       0.52422839 </v>
   <v>       0.61262925       0.59684229       0.48721352 </v>
  </varray>
 </structure>
</modeling>
