<?xml version="1.0" encoding="ISO-8859-1"?>
<modeling>
 <generator>
  <i name="program" type="string">vasp </i>
  <i name="version" type="string">5.4.4.18Apr17-6-g9f103f2a35  </i>
  <i name="subversion" type="string">(build Jun 07 2020 16:50:00) complex            parallel </i>
  <i name="platform" type="string">LinuxIFC </i>
  <i name="date" type="string">2023 02 19 </i>
  <i name="time" type="string">04:28:22 </i>
 </generator>
 <incar>
  <i type="string" name="SYSTEM">Simulation for cell shape cell volume r</i>
  <i type="int" name="ISTART">     1</i>
  <i type="string" name="PREC">high</i>
  <i type="string" name="ALGO">48</i>
  <i type="int" name="ICHARG">    11</i>
  <i type="int" name="NELM">   200</i>
  <i type="int" name="IBRION">    -1</i>
  <i name="EDIFF">      0.00001000</i>
  <i name="EDIFFG">     -0.01000000</i>
  <i type="int" name="NSW">     0</i>
  <i type="int" name="ISIF">     2</i>
  <i name="ENCUT">    500.00000000</i>
  <i name="POTIM">      0.30000000</i>
  <i type="string" name="LREAL">A</i>
  <i type="int" name="ISMEAR">     0</i>
  <i name="SIGMA">      0.01000000</i>
  <i type="int" name="NWRITE">     0</i>
  <i type="logical" name="LWAVE"> F  </i>
  <i type="logical" name="LCHARG"> F  </i>
  <v type="int" name="KPOINT_BSE">    -1     0     0     0</v>
  <i type="int" name="NELM">   200</i>
  <i type="string" name="GGA">PE</i>
 </incar>
 <structure name="primitive_cell" >
  <crystal>
   <varray name="basis" >
    <v>      23.01715906       0.00907727       0.00000000 </v>
    <v>     -11.50051326      20.00867538       0.00000000 </v>
    <v>       0.00000000       0.00000000      20.00000000 </v>
   </varray>
   <i name="volume">   9212.94514079 </i>
   <varray name="rec_basis" >
    <v>       0.04343600       0.02496599       0.00000000 </v>
    <v>      -0.00001971       0.04996699       0.00000000 </v>
    <v>       0.00000000       0.00000000       0.05000000 </v>
   </varray>
  </crystal>
  <varray name="positions" >
   <v>      -0.47876101       0.04115968       0.48408897 </v>
   <v>       0.48947242       0.07762214      -0.49813762 </v>
   <v>      -0.40677735       0.07938948       0.47865679 </v>
   <v>       0.48217163      -0.03290286       0.47666273 </v>
   <v>       0.43523722       0.05167405      -0.49317274 </v>
   <v>      -0.37181929       0.14573453      -0.49772660 </v>
   <v>      -0.36938631       0.05246101       0.45309989 </v>
   <v>      -0.47676038       0.14570098      -0.48267053 </v>
   <v>      -0.48641544      -0.07149412       0.48624434 </v>
   <v>       0.41085857      -0.06994975       0.46642395 </v>
   <v>      -0.39171412       0.01566226       0.41858604 </v>
   <v>      -0.43270123      -0.04599121       0.49537116 </v>
   <v>       0.39683711       0.00368447       0.42507245 </v>
   <v>      -0.40624728       0.17935975      -0.47789886 </v>
   <v>       0.37326788      -0.03970168       0.45118218 </v>
   <v>      -0.32026518       0.08493044       0.44422570 </v>
   <v>       0.47262154       0.10012113      -0.37776254 </v>
   <v>       0.48047446      -0.14102549       0.48507737 </v>
   <v>       0.37570022      -0.13986468       0.47521670 </v>
   <v>       0.49105904       0.18785147      -0.47821660 </v>
   <v>      -0.29756559       0.18885473      -0.49971886 </v>
   <v>      -0.45750793      -0.08863679      -0.40419991 </v>
   <v>       0.32593715      -0.07110762       0.43508413 </v>
   <v>      -0.36903352       0.24707764      -0.46138068 </v>
   <v>       0.40970626      -0.17632041       0.48103396 </v>
   <v>       0.44709729       0.11415220      -0.34969374 </v>
   <v>       0.48077106       0.21057897       0.46344161 </v>
   <v>      -0.28089167       0.19207880       0.39187701 </v>
   <v>      -0.26190735       0.21597062       0.44040976 </v>
   <v>      -0.26582927       0.21415204      -0.44130127 </v>
   <v>      -0.33160432       0.25852702      -0.42790270 </v>
   <v>      -0.39521651       0.27070392      -0.45106475 </v>
   <v>      -0.43228848      -0.10679600      -0.38201787 </v>
   <v>       0.48463464       0.21599957      -0.41787715 </v>
   <v>      -0.48628975      -0.18232071       0.48728490 </v>
   <v>       0.48033454       0.18510647      -0.34994803 </v>
   <v>       0.30147690      -0.18133022       0.48323806 </v>
   <v>      -0.46833209       0.20710517      -0.32893448 </v>
   <v>       0.27889242      -0.19600434      -0.45348151 </v>
   <v>       0.37374843      -0.24539919       0.48634833 </v>
   <v>      -0.47126920      -0.17775134      -0.38421552 </v>
   <v>       0.47717738       0.26646660       0.46340493 </v>
   <v>      -0.47867600      -0.20628079       0.42856679 </v>
   <v>       0.47723528      -0.19560864      -0.36541870 </v>
   <v>      -0.47628165      -0.20846424      -0.45245014 </v>
   <v>      -0.20656943       0.27605955       0.44019880 </v>
   <v>      -0.27258662       0.33295984       0.49716085 </v>
   <v>      -0.20657100       0.27082443      -0.44095132 </v>
   <v>       0.26736502      -0.20118192       0.37889511 </v>
   <v>       0.25679404      -0.21741549       0.43103633 </v>
   <v>       0.45199366       0.19981407      -0.31652061 </v>
   <v>       0.48830688       0.27589221      -0.41887213 </v>
   <v>       0.32639902      -0.26850840       0.46785317 </v>
   <v>       0.39734794      -0.27125271       0.47401363 </v>
   <v>       0.46908397       0.28353482       0.41509427 </v>
   <v>       0.49068119       0.30519993      -0.47781212 </v>
   <v>      -0.18165144       0.30722228       0.49885773 </v>
   <v>      -0.44755030      -0.19717970      -0.35015017 </v>
   <v>      -0.41149837       0.34814416      -0.39577365 </v>
   <v>      -0.19160107       0.25301854      -0.33976282 </v>
   <v>      -0.24600471       0.38263070      -0.49213296 </v>
   <v>       0.22035725      -0.25102753      -0.44092786 </v>
   <v>      -0.17379308       0.29616502      -0.37345924 </v>
   <v>      -0.47383879      -0.26168922       0.42834444 </v>
   <v>      -0.47861917      -0.26761498      -0.45349333 </v>
   <v>      -0.38120137       0.38356004      -0.42933705 </v>
   <v>      -0.27124712       0.40582569       0.49243186 </v>
   <v>       0.20234528      -0.27664597       0.44323129 </v>
   <v>      -0.19153825       0.32918677      -0.35274132 </v>
   <v>       0.21028486      -0.21329982      -0.34710378 </v>
   <v>       0.40927189      -0.32941908      -0.45013857 </v>
   <v>      -0.48358348      -0.29821772       0.48770815 </v>
   <v>       0.18733096      -0.29772914      -0.49307961 </v>
   <v>      -0.33423282       0.41348016      -0.41142412 </v>
   <v>       0.26172033      -0.32871461      -0.42767448 </v>
   <v>      -0.46780864      -0.27983659       0.37975994 </v>
   <v>      -0.14104647       0.38154945       0.49682478 </v>
   <v>      -0.47952663       0.37904071      -0.47970561 </v>
   <v>       0.19449732      -0.26234988      -0.36970528 </v>
   <v>      -0.17740474       0.41609589       0.49723123 </v>
   <v>       0.21899757      -0.28508692      -0.34036231 </v>
   <v>      -0.41173094       0.41642936      -0.45868824 </v>
   <v>       0.40554853       0.32193522       0.46355428 </v>
   <v>      -0.10253576       0.32871531      -0.37395304 </v>
   <v>       0.38479231      -0.36835708      -0.48222123 </v>
   <v>       0.24233980      -0.37715484      -0.44177775 </v>
   <v>       0.33461050      -0.39353840      -0.47378397 </v>
   <v>      -0.08568457       0.37150292      -0.39675818 </v>
   <v>       0.48831922       0.41104763       0.49020919 </v>
   <v>       0.42417150       0.37195761       0.46565127 </v>
   <v>      -0.07151826       0.41828613       0.49238618 </v>
   <v>       0.12355387      -0.30040456      -0.36417705 </v>
   <v>       0.48495944      -0.37235205       0.48968084 </v>
   <v>       0.14515367      -0.37129940      -0.48404437 </v>
   <v>      -0.04524433       0.39046794       0.49878399 </v>
   <v>       0.24871514      -0.40524596      -0.40641940 </v>
   <v>      -0.14198413       0.48601199       0.48830872 </v>
   <v>      -0.37475544       0.48477131      -0.47635737 </v>
   <v>       0.41621121      -0.40586631      -0.49346770 </v>
   <v>       0.17716503      -0.40796213      -0.46717384 </v>
   <v>      -0.40107190      -0.32352383       0.43610977 </v>
   <v>       0.10837893      -0.34397893      -0.38490103 </v>
   <v>      -0.30078198      -0.48357410      -0.48304656 </v>
   <v>      -0.18381425      -0.48158524       0.49598594 </v>
   <v>       0.40878124       0.39114296       0.42865932 </v>
   <v>      -0.27784294      -0.47619738       0.45377966 </v>
   <v>      -0.21849296      -0.47186039       0.44296860 </v>
   <v>      -0.19991322      -0.47446070      -0.44108558 </v>
   <v>      -0.28705594       0.49538534      -0.32887042 </v>
   <v>      -0.25540960      -0.47105891      -0.42976798 </v>
   <v>      -0.20093857      -0.46555234       0.39123595 </v>
   <v>      -0.47892326       0.48295361       0.48858985 </v>
   <v>      -0.40970722      -0.48395361      -0.49904279 </v>
   <v>       0.05307336      -0.37691975       0.49386582 </v>
   <v>       0.07777696      -0.40645048       0.49690404 </v>
   <v>      -0.03392997       0.48799954       0.48148969 </v>
   <v>      -0.48236932      -0.40801347       0.47211901 </v>
   <v>      -0.41720337      -0.37183621       0.44837523 </v>
   <v>      -0.07285224      -0.47917667       0.47398730 </v>
   <v>       0.02024322       0.41055351       0.42735580 </v>
   <v>      -0.26837214      -0.45798205      -0.35855876 </v>
   <v>       0.38007346      -0.47633684      -0.49473230 </v>
   <v>       0.14513701      -0.47641501      -0.48531286 </v>
   <v>      -0.35310467      -0.45982033      -0.37653714 </v>
   <v>       0.33347509      -0.46358779      -0.34148592 </v>
   <v>       0.38714085       0.43573183      -0.49650749 </v>
   <v>       0.05442529       0.42611877       0.46475422 </v>
   <v>       0.18889911       0.49318434      -0.48470062 </v>
   <v>       0.30594284       0.49201028      -0.48885568 </v>
   <v>      -0.40201881      -0.39555561       0.41614110 </v>
   <v>       0.21747197       0.49135247      -0.42658317 </v>
   <v>       0.27162724       0.48195434       0.45372688 </v>
   <v>       0.27346525       0.48702578      -0.42738663 </v>
   <v>      -0.38059085      -0.42990125       0.49661635 </v>
   <v>      -0.31149264      -0.43072482      -0.35260809 </v>
   <v>       0.21227801       0.47895534       0.45562325 </v>
   <v>      -0.22005741      -0.42169360      -0.33627756 </v>
   <v>      -0.00662573      -0.39464686       0.42293178 </v>
   <v>       0.08665434       0.40828750       0.46231988 </v>
   <v>       0.48444815      -0.47922234       0.48239101 </v>
   <v>       0.04060572      -0.47591462       0.48669994 </v>
   <v>      -0.04492396      -0.41219874       0.45624495 </v>
   <v>       0.18581456       0.47091636       0.40809083 </v>
   <v>      -0.07873460      -0.39746918       0.44547991 </v>
   <v>       0.30236017       0.48451041      -0.36011558 </v>
   <v>       0.07980178       0.49098200       0.48748454 </v>
   <v>       0.41528460       0.48954959       0.49625266 </v>
   <v>       0.37839378       0.47414261      -0.38760620 </v>
   <v>       0.26056200       0.45871244      -0.32482204 </v>
   <v>       0.33867962       0.44958865      -0.35963476 </v>
  </varray>
 </structure>
 <varray name="primitive_index" >
  <v type="int" >        1 </v>
  <v type="int" >        2 </v>
  <v type="int" >        3 </v>
  <v type="int" >       46 </v>
  <v type="int" >       67 </v>
  <v type="int" >        5 </v>
  <v type="int" >      121 </v>
  <v type="int" >        4 </v>
  <v type="int" >        6 </v>
  <v type="int" >       48 </v>
  <v type="int" >       68 </v>
  <v type="int" >       72 </v>
  <v type="int" >       99 </v>
  <v type="int" >        9 </v>
  <v type="int" >      134 </v>
  <v type="int" >       70 </v>
  <v type="int" >       69 </v>
  <v type="int" >        7 </v>
  <v type="int" >       47 </v>
  <v type="int" >       22 </v>
  <v type="int" >       31 </v>
  <v type="int" >       92 </v>
  <v type="int" >      100 </v>
  <v type="int" >      123 </v>
  <v type="int" >        8 </v>
  <v type="int" >      145 </v>
  <v type="int" >      139 </v>
  <v type="int" >      117 </v>
  <v type="int" >       63 </v>
  <v type="int" >      130 </v>
  <v type="int" >      101 </v>
  <v type="int" >       73 </v>
  <v type="int" >      148 </v>
  <v type="int" >       24 </v>
  <v type="int" >       34 </v>
  <v type="int" >       25 </v>
  <v type="int" >       43 </v>
  <v type="int" >       83 </v>
  <v type="int" >      133 </v>
  <v type="int" >      122 </v>
  <v type="int" >       37 </v>
  <v type="int" >       61 </v>
  <v type="int" >      142 </v>
  <v type="int" >       90 </v>
  <v type="int" >       36 </v>
  <v type="int" >      141 </v>
  <v type="int" >       81 </v>
  <v type="int" >       32 </v>
  <v type="int" >      120 </v>
  <v type="int" >       66 </v>
  <v type="int" >       71 </v>
  <v type="int" >      128 </v>
  <v type="int" >      102 </v>
  <v type="int" >       74 </v>
  <v type="int" >      115 </v>
  <v type="int" >       23 </v>
  <v type="int" >       30 </v>
  <v type="int" >       91 </v>
  <v type="int" >      107 </v>
  <v type="int" >       88 </v>
  <v type="int" >      127 </v>
  <v type="int" >       44 </v>
  <v type="int" >       33 </v>
  <v type="int" >       64 </v>
  <v type="int" >      131 </v>
  <v type="int" >      125 </v>
  <v type="int" >      113 </v>
  <v type="int" >      144 </v>
  <v type="int" >       87 </v>
  <v type="int" >       97 </v>
  <v type="int" >      108 </v>
  <v type="int" >       35 </v>
  <v type="int" >       42 </v>
  <v type="int" >       77 </v>
  <v type="int" >       82 </v>
  <v type="int" >      118 </v>
  <v type="int" >       20 </v>
  <v type="int" >       54 </v>
  <v type="int" >       45 </v>
  <v type="int" >       19 </v>
  <v type="int" >       96 </v>
  <v type="int" >       13 </v>
  <v type="int" >      105 </v>
  <v type="int" >      147 </v>
  <v type="int" >      124 </v>
  <v type="int" >      126 </v>
  <v type="int" >       78 </v>
  <v type="int" >       89 </v>
  <v type="int" >       53 </v>
  <v type="int" >      136 </v>
  <v type="int" >       21 </v>
  <v type="int" >      150 </v>
  <v type="int" >       50 </v>
  <v type="int" >       17 </v>
  <v type="int" >       80 </v>
  <v type="int" >      114 </v>
  <v type="int" >       60 </v>
  <v type="int" >       14 </v>
  <v type="int" >       12 </v>
  <v type="int" >       18 </v>
  <v type="int" >      104 </v>
  <v type="int" >       98 </v>
  <v type="int" >       26 </v>
  <v type="int" >       27 </v>
  <v type="int" >      106 </v>
  <v type="int" >      140 </v>
  <v type="int" >       62 </v>
  <v type="int" >      129 </v>
  <v type="int" >       84 </v>
  <v type="int" >       28 </v>
  <v type="int" >      116 </v>
  <v type="int" >       52 </v>
  <v type="int" >       15 </v>
  <v type="int" >       79 </v>
  <v type="int" >       16 </v>
  <v type="int" >       58 </v>
  <v type="int" >       51 </v>
  <v type="int" >      135 </v>
  <v type="int" >       59 </v>
  <v type="int" >      109 </v>
  <v type="int" >       29 </v>
  <v type="int" >       11 </v>
  <v type="int" >       56 </v>
  <v type="int" >       86 </v>
  <v type="int" >       93 </v>
  <v type="int" >       75 </v>
  <v type="int" >      137 </v>
  <v type="int" >       39 </v>
  <v type="int" >       38 </v>
  <v type="int" >      103 </v>
  <v type="int" >      132 </v>
  <v type="int" >      143 </v>
  <v type="int" >       40 </v>
  <v type="int" >       76 </v>
  <v type="int" >      146 </v>
  <v type="int" >       65 </v>
  <v type="int" >       85 </v>
  <v type="int" >      112 </v>
  <v type="int" >      110 </v>
  <v type="int" >       49 </v>
  <v type="int" >       55 </v>
  <v type="int" >      138 </v>
  <v type="int" >      119 </v>
  <v type="int" >      111 </v>
  <v type="int" >       41 </v>
  <v type="int" >       57 </v>
  <v type="int" >       10 </v>
  <v type="int" >       95 </v>
  <v type="int" >       94 </v>
  <v type="int" >      149 </v>
 </varray>
 <kpoints>
  <generation param="listgenerated">
   <i name="divisions" type="int">      20 </i>
   <v>       0.00000000       0.00000000       0.00000000 </v>
   <v>       0.50000000       0.00000000       0.00000000 </v>
   <v>       0.33333333       0.33333333       0.00000000 </v>
   <v>       0.00000000       0.00000000       0.00000000 </v>
  </generation>
  <varray name="kpointlist" >
   <v>       0.00000000       0.00000000       0.00000000 </v>
   <v>       0.02631579       0.00000000       0.00000000 </v>
   <v>       0.05263158       0.00000000       0.00000000 </v>
   <v>       0.07894737       0.00000000       0.00000000 </v>
   <v>       0.10526316       0.00000000       0.00000000 </v>
   <v>       0.13157895       0.00000000       0.00000000 </v>
   <v>       0.15789474       0.00000000       0.00000000 </v>
   <v>       0.18421053       0.00000000       0.00000000 </v>
   <v>       0.21052632       0.00000000       0.00000000 </v>
   <v>       0.23684211       0.00000000       0.00000000 </v>
   <v>       0.26315789       0.00000000       0.00000000 </v>
   <v>       0.28947368       0.00000000       0.00000000 </v>
   <v>       0.31578947       0.00000000       0.00000000 </v>
   <v>       0.34210526       0.00000000       0.00000000 </v>
   <v>       0.36842105       0.00000000       0.00000000 </v>
   <v>       0.39473684       0.00000000       0.00000000 </v>
   <v>       0.42105263       0.00000000       0.00000000 </v>
   <v>       0.44736842       0.00000000       0.00000000 </v>
   <v>       0.47368421       0.00000000       0.00000000 </v>
   <v>       0.50000000       0.00000000       0.00000000 </v>
   <v>       0.50000000       0.00000000       0.00000000 </v>
   <v>       0.49122807       0.01754386       0.00000000 </v>
   <v>       0.48245614       0.03508772       0.00000000 </v>
   <v>       0.47368421       0.05263158       0.00000000 </v>
   <v>       0.46491228       0.07017544       0.00000000 </v>
   <v>       0.45614035       0.08771930       0.00000000 </v>
   <v>       0.44736842       0.10526316       0.00000000 </v>
   <v>       0.43859649       0.12280702       0.00000000 </v>
   <v>       0.42982456       0.14035088       0.00000000 </v>
   <v>       0.42105263       0.15789474       0.00000000 </v>
   <v>       0.41228070       0.17543860       0.00000000 </v>
   <v>       0.40350877       0.19298246       0.00000000 </v>
   <v>       0.39473684       0.21052632       0.00000000 </v>
   <v>       0.38596491       0.22807018       0.00000000 </v>
   <v>       0.37719298       0.24561404       0.00000000 </v>
   <v>       0.36842105       0.26315789       0.00000000 </v>
   <v>       0.35964912       0.28070175       0.00000000 </v>
   <v>       0.35087719       0.29824561       0.00000000 </v>
   <v>       0.34210526       0.31578947       0.00000000 </v>
   <v>       0.33333333       0.33333333       0.00000000 </v>
   <v>       0.33333333       0.33333333       0.00000000 </v>
   <v>       0.31578947       0.31578947       0.00000000 </v>
   <v>       0.29824561       0.29824561       0.00000000 </v>
   <v>       0.28070175       0.28070175       0.00000000 </v>
   <v>       0.26315789       0.26315789       0.00000000 </v>
   <v>       0.24561404       0.24561404       0.00000000 </v>
   <v>       0.22807018       0.22807018       0.00000000 </v>
   <v>       0.21052632       0.21052632       0.00000000 </v>
   <v>       0.19298246       0.19298246       0.00000000 </v>
   <v>       0.17543860       0.17543860       0.00000000 </v>
   <v>       0.15789474       0.15789474       0.00000000 </v>
   <v>       0.14035088       0.14035088       0.00000000 </v>
   <v>       0.12280702       0.12280702       0.00000000 </v>
   <v>       0.10526316       0.10526316       0.00000000 </v>
   <v>       0.08771930       0.08771930       0.00000000 </v>
   <v>       0.07017544       0.07017544       0.00000000 </v>
   <v>       0.05263158       0.05263158       0.00000000 </v>
   <v>       0.03508772       0.03508772       0.00000000 </v>
   <v>       0.01754386       0.01754386       0.00000000 </v>
   <v>       0.00000000       0.00000000       0.00000000 </v>
  </varray>
  <varray name="weights" >
   <v>       0.01666667 </v>
   <v>       0.01666667 </v>
   <v>       0.01666667 </v>
   <v>       0.01666667 </v>
   <v>       0.01666667 </v>
   <v>       0.01666667 </v>
   <v>       0.01666667 </v>
   <v>       0.01666667 </v>
   <v>       0.01666667 </v>
   <v>       0.01666667 </v>
   <v>       0.01666667 </v>
   <v>       0.01666667 </v>
   <v>       0.01666667 </v>
   <v>       0.01666667 </v>
   <v>       0.01666667 </v>
   <v>       0.01666667 </v>
   <v>       0.01666667 </v>
   <v>       0.01666667 </v>
   <v>       0.01666667 </v>
   <v>       0.01666667 </v>
   <v>       0.01666667 </v>
   <v>       0.01666667 </v>
   <v>       0.01666667 </v>
   <v>       0.01666667 </v>
   <v>       0.01666667 </v>
   <v>       0.01666667 </v>
   <v>       0.01666667 </v>
   <v>       0.01666667 </v>
   <v>       0.01666667 </v>
   <v>       0.01666667 </v>
   <v>       0.01666667 </v>
   <v>       0.01666667 </v>
   <v>       0.01666667 </v>
   <v>       0.01666667 </v>
   <v>       0.01666667 </v>
   <v>       0.01666667 </v>
   <v>       0.01666667 </v>
   <v>       0.01666667 </v>
   <v>       0.01666667 </v>
   <v>       0.01666667 </v>
   <v>       0.01666667 </v>
   <v>       0.01666667 </v>
   <v>       0.01666667 </v>
   <v>       0.01666667 </v>
   <v>       0.01666667 </v>
   <v>       0.01666667 </v>
   <v>       0.01666667 </v>
   <v>       0.01666667 </v>
   <v>       0.01666667 </v>
   <v>       0.01666667 </v>
   <v>       0.01666667 </v>
   <v>       0.01666667 </v>
   <v>       0.01666667 </v>
   <v>       0.01666667 </v>
   <v>       0.01666667 </v>
   <v>       0.01666667 </v>
   <v>       0.01666667 </v>
   <v>       0.01666667 </v>
   <v>       0.01666667 </v>
   <v>       0.01666667 </v>
  </varray>
 </kpoints>
 <parameters>
  <separator name="general" >
   <i type="string" name="SYSTEM">Simulation for cell shape cell volume r</i>
   <i type="logical" name="LCOMPAT"> F  </i>
  </separator>
  <separator name="electronic" >
   <i type="string" name="PREC">high</i>
   <i name="ENMAX">    500.00000000</i>
   <i name="ENAUG">    644.87300000</i>
   <i name="EDIFF">      0.00001000</i>
   <i type="int" name="IALGO">    38</i>
   <i type="int" name="IWAVPR">    10</i>
   <i type="int" name="NBANDS">   320</i>
   <i name="NELECT">    474.00000000</i>
   <i type="int" name="TURBO">     0</i>
   <i type="int" name="IRESTART">     0</i>
   <i type="int" name="NREBOOT">     0</i>
   <i type="int" name="NMIN">     0</i>
   <i name="EREF">      0.00000000</i>
   <separator name="electronic smearing" >
    <i type="int" name="ISMEAR">     0</i>
    <i name="SIGMA">      0.01000000</i>
    <i name="KSPACING">      0.50000000</i>
    <i type="logical" name="KGAMMA"> T  </i>
   </separator>
   <separator name="electronic projectors" >
    <i type="logical" name="LREAL"> T  </i>
    <v name="ROPT">     -0.00040000     -0.00040000     -0.00040000     -0.00040000</v>
    <i type="int" name="LMAXPAW">  -100</i>
    <i type="int" name="LMAXMIX">     2</i>
    <i type="logical" name="NLSPLINE"> F  </i>
   </separator>
   <separator name="electronic startup" >
    <i type="int" name="ISTART">     1</i>
    <i type="int" name="ICHARG">    11</i>
    <i type="int" name="INIWAV">     1</i>
   </separator>
   <separator name="electronic spin" >
    <i type="int" name="ISPIN">     1</i>
    <i type="logical" name="LNONCOLLINEAR"> F  </i>
    <v name="MAGMOM">      1.00000000      1.00000000      1.00000000      1.00000000      1.00000000      1.00000000      1.00000000      1.00000000      1.00000000      1.00000000      1.00000000      1.00000000      1.00000000      1.00000000      1.00000000      1.00000000      1.00000000      1.00000000      1.00000000      1.00000000
      1.00000000      1.00000000      1.00000000      1.00000000      1.00000000      1.00000000      1.00000000      1.00000000      1.00000000      1.00000000      1.00000000      1.00000000      1.00000000      1.00000000      1.00000000      1.00000000      1.00000000      1.00000000      1.00000000      1.00000000
      1.00000000      1.00000000      1.00000000      1.00000000      1.00000000      1.00000000      1.00000000      1.00000000      1.00000000      1.00000000      1.00000000      1.00000000      1.00000000      1.00000000      1.00000000      1.00000000      1.00000000      1.00000000      1.00000000      1.00000000
      1.00000000      1.00000000      1.00000000      1.00000000      1.00000000      1.00000000      1.00000000      1.00000000      1.00000000      1.00000000      1.00000000      1.00000000      1.00000000      1.00000000      1.00000000      1.00000000      1.00000000      1.00000000      1.00000000      1.00000000
      1.00000000      1.00000000      1.00000000      1.00000000      1.00000000      1.00000000      1.00000000      1.00000000      1.00000000      1.00000000      1.00000000      1.00000000      1.00000000      1.00000000      1.00000000      1.00000000      1.00000000      1.00000000      1.00000000      1.00000000
      1.00000000      1.00000000      1.00000000      1.00000000      1.00000000      1.00000000      1.00000000      1.00000000      1.00000000      1.00000000      1.00000000      1.00000000      1.00000000      1.00000000      1.00000000      1.00000000      1.00000000      1.00000000      1.00000000      1.00000000
      1.00000000      1.00000000      1.00000000      1.00000000      1.00000000      1.00000000      1.00000000      1.00000000      1.00000000      1.00000000      1.00000000      1.00000000      1.00000000      1.00000000      1.00000000      1.00000000      1.00000000      1.00000000      1.00000000      1.00000000
      1.00000000      1.00000000      1.00000000      1.00000000      1.00000000      1.00000000      1.00000000      1.00000000      1.00000000      1.00000000</v>
    <i name="NUPDOWN">     -1.00000000</i>
    <i type="logical" name="LSORBIT"> F  </i>
    <v name="SAXIS">      0.00000000      0.00000000      1.00000000</v>
    <i type="logical" name="LSPIRAL"> F  </i>
    <v name="QSPIRAL">      0.00000000      0.00000000      0.00000000</v>
    <i type="logical" name="LZEROZ"> F  </i>
   </separator>
   <separator name="electronic exchange-correlation" >
    <i type="logical" name="LASPH"> F  </i>
    <i type="logical" name="LMETAGGA"> F  </i>
   </separator>
   <separator name="electronic convergence" >
    <i type="int" name="NELM">   200</i>
    <i type="int" name="NELMDL">     0</i>
    <i type="int" name="NELMIN">     2</i>
    <i name="ENINI">    500.00000000</i>
    <separator name="electronic convergence detail" >
     <i type="logical" name="LDIAG"> T  </i>
     <i type="logical" name="LSUBROT"> F  </i>
     <i name="WEIMIN">      0.00000000</i>
     <i name="EBREAK">      0.00000001</i>
     <i name="DEPER">      0.30000000</i>
     <i type="int" name="NRMM">     4</i>
     <i name="TIME">      0.40000000</i>
    </separator>
   </separator>
   <separator name="electronic mixer" >
    <i name="AMIX">      0.40000000</i>
    <i name="BMIX">      1.00000000</i>
    <i name="AMIN">      0.10000000</i>
    <i name="AMIX_MAG">      1.60000000</i>
    <i name="BMIX_MAG">      1.00000000</i>
    <separator name="electronic mixer details" >
     <i type="int" name="IMIX">     4</i>
     <i type="logical" name="MIXFIRST"> F  </i>
     <i type="int" name="MAXMIX">   -45</i>
     <i name="WC">    100.00000000</i>
     <i type="int" name="INIMIX">     1</i>
     <i type="int" name="MIXPRE">     1</i>
     <i type="int" name="MREMOVE">     5</i>
    </separator>
   </separator>
   <separator name="electronic dipolcorrection" >
    <i type="logical" name="LDIPOL"> F  </i>
    <i type="logical" name="LMONO"> F  </i>
    <i type="int" name="IDIPOL">     0</i>
    <i name="EPSILON">      1.00000000</i>
    <v name="DIPOL">   -100.00000000   -100.00000000   -100.00000000</v>
    <i name="EFIELD">      0.00000000</i>
   </separator>
  </separator>
  <separator name="grids" >
   <i type="int" name="NGX">   168</i>
   <i type="int" name="NGY">   168</i>
   <i type="int" name="NGZ">   150</i>
   <i type="int" name="NGXF">   256</i>
   <i type="int" name="NGYF">   256</i>
   <i type="int" name="NGZF">   224</i>
   <i type="logical" name="ADDGRID"> F  </i>
  </separator>
  <separator name="ionic" >
   <i type="int" name="NSW">     0</i>
   <i type="int" name="IBRION">    -1</i>
   <i type="int" name="MDALGO">     0</i>
   <i type="int" name="ISIF">     2</i>
   <i name="PSTRESS">      0.00000000</i>
   <i name="EDIFFG">     -0.01000000</i>
   <i type="int" name="NFREE">     0</i>
   <i name="POTIM">      0.30000000</i>
   <i name="SMASS">     -3.00000000</i>
   <i name="SCALEE">      1.00000000</i>
  </separator>
  <separator name="ionic md" >
   <i name="TEBEG">      0.00010000</i>
   <i name="TEEND">      0.00010000</i>
   <i type="int" name="NBLOCK">     1</i>
   <i type="int" name="KBLOCK">     1</i>
   <i type="int" name="NPACO">   256</i>
   <i name="APACO">     16.00000000</i>
  </separator>
  <separator name="symmetry" >
   <i type="int" name="ISYM">     2</i>
   <i name="SYMPREC">      0.00001000</i>
  </separator>
  <separator name="dos" >
   <i type="int" name="LORBIT">     0</i>
   <v name="RWIGS">     -1.00000000     -1.00000000     -1.00000000     -1.00000000</v>
   <i type="int" name="NEDOS">   301</i>
   <i name="EMIN">     10.00000000</i>
   <i name="EMAX">    -10.00000000</i>
   <i name="EFERMI">      0.00000000</i>
  </separator>
  <separator name="writing" >
   <i type="int" name="NWRITE">     0</i>
   <i type="logical" name="LWAVE"> F  </i>
   <i type="logical" name="LDOWNSAMPLE"> F  </i>
   <i type="logical" name="LCHARG"> F  </i>
   <i type="logical" name="LPARD"> F  </i>
   <i type="logical" name="LVTOT"> F  </i>
   <i type="logical" name="LVHAR"> F  </i>
   <i type="logical" name="LELF"> F  </i>
   <i type="logical" name="LOPTICS"> F  </i>
   <v name="STM">      0.00000000      0.00000000      0.00000000      0.00000000      0.00000000      0.00000000      0.00000000</v>
  </separator>
  <separator name="performance" >
   <i type="int" name="NPAR">    16</i>
   <i type="int" name="NSIM">     4</i>
   <i type="int" name="NBLK">    -1</i>
   <i type="logical" name="LPLANE"> T  </i>
   <i type="logical" name="LSCALAPACK"> T  </i>
   <i type="logical" name="LSCAAWARE"> F  </i>
   <i type="logical" name="LSCALU"> F  </i>
   <i type="logical" name="LASYNC"> F  </i>
   <i type="logical" name="LORBITALREAL"> F  </i>
  </separator>
  <separator name="miscellaneous" >
   <i type="int" name="IDIOT">     3</i>
   <i type="int" name="ISPECIAL">     0</i>
   <i type="logical" name="LMUSIC"> F  </i>
   <v name="POMASS">     12.01100000      1.00000000     14.00100000     16.00000000</v>
   <v name="DARWINR">      0.00000000      0.00000000      0.00000000      0.00000000</v>
   <v name="DARWINV">      1.00000000      1.00000000      1.00000000      1.00000000</v>
   <i type="logical" name="LCORR"> T  </i>
  </separator>
  <i type="logical" name="GGA_COMPAT"> T  </i>
  <i type="logical" name="LBERRY"> F  </i>
  <i type="int" name="ICORELEVEL">     0</i>
  <i type="logical" name="LDAU"> F  </i>
  <i type="int" name="I_CONSTRAINED_M">     0</i>
  <separator name="electronic exchange-correlation" >
   <i type="string" name="GGA">PE</i>
   <i type="int" name="VOSKOWN">     0</i>
   <i type="logical" name="LHFCALC"> F  </i>
   <i type="string" name="PRECFOCK"></i>
   <i type="logical" name="LSYMGRAD"> F  </i>
   <i type="logical" name="LHFONE"> F  </i>
   <i type="logical" name="LRHFCALC"> F  </i>
   <i type="logical" name="LTHOMAS"> F  </i>
   <i type="logical" name="LMODELHF"> F  </i>
   <i name="ENCUT4O">     -1.00000000</i>
   <i type="int" name="EXXOEP">     0</i>
   <i type="int" name="FOURORBIT">     0</i>
   <i name="AEXX">      0.00000000</i>
   <i name="HFALPHA">      0.00000000</i>
   <i name="MCALPHA">      0.00000000</i>
   <i name="ALDAX">      1.00000000</i>
   <i name="AGGAX">      1.00000000</i>
   <i name="ALDAC">      1.00000000</i>
   <i name="AGGAC">      1.00000000</i>
   <i type="int" name="NKREDX">     1</i>
   <i type="int" name="NKREDY">     1</i>
   <i type="int" name="NKREDZ">     1</i>
   <i type="logical" name="SHIFTRED"> F  </i>
   <i type="logical" name="ODDONLY"> F  </i>
   <i type="logical" name="EVENONLY"> F  </i>
   <i type="int" name="LMAXFOCK">     0</i>
   <i type="int" name="NMAXFOCKAE">     0</i>
   <i type="logical" name="LFOCKAEDFT"> F  </i>
   <i name="HFSCREEN">      0.00000000</i>
   <i name="HFSCREENC">      0.00000000</i>
   <i type="int" name="NBANDSGWLOW">     0</i>
  </separator>
  <separator name="vdW DFT" >
   <i type="logical" name="LUSE_VDW"> F  </i>
   <i name="Zab_VDW">     -0.84910000</i>
   <i name="PARAM1">      0.12340000</i>
   <i name="PARAM2">      1.00000000</i>
   <i name="PARAM3">      0.00000000</i>
  </separator>
  <separator name="model GW" >
   <i type="int" name="MODEL_GW">     0</i>
   <i name="MODEL_EPS0">     36.85178056</i>
   <i name="MODEL_ALPHA">      1.00000000</i>
  </separator>
  <separator name="linear response parameters" >
   <i type="logical" name="LEPSILON"> F  </i>
   <i type="logical" name="LRPA"> F  </i>
   <i type="logical" name="LNABLA"> F  </i>
   <i type="logical" name="LVEL"> F  </i>
   <i type="int" name="KINTER">     0</i>
   <i name="CSHIFT">      0.10000000</i>
   <i name="OMEGAMAX">     -1.00000000</i>
   <i name="DEG_THRESHOLD">      0.00200000</i>
   <i name="RTIME">     -0.10000000</i>
   <i name="WPLASMAI">      0.00000000</i>
   <v name="DFIELD">      0.00000000      0.00000000      0.00000000</v>
   <v name="WPLASMA">      0.00000000      0.00000000      0.00000000      0.00000000      0.00000000      0.00000000      0.00000000      0.00000000      0.00000000</v>
  </separator>
  <separator name="orbital magnetization" >
   <i type="logical" name="NUCIND"> F  </i>
   <v name="MAGPOS">      0.00000000      0.00000000      0.00000000</v>
   <i type="logical" name="LNICSALL"> T  </i>
   <i type="logical" name="ORBITALMAG"> F  </i>
   <i type="logical" name="LMAGBLOCH"> F  </i>
   <i type="logical" name="LCHIMAG"> F  </i>
   <i type="logical" name="LGAUGE"> T  </i>
   <i type="int" name="MAGATOM">     0</i>
   <v name="MAGDIPOL">      0.00000000      0.00000000      0.00000000</v>
   <v name="AVECCONST">      0.00000000      0.00000000      0.00000000</v>
  </separator>
  <separator name="response functions" >
   <i type="logical" name="LADDER"> F  </i>
   <i type="logical" name="LRPAFORCE"> F  </i>
   <i type="logical" name="LFXC"> F  </i>
   <i type="logical" name="LHARTREE"> T  </i>
   <i type="int" name="IBSE">     0</i>
   <v type="int" name="KPOINT">    -1     0     0     0</v>
   <i type="logical" name="LTCTE"> F  </i>
   <i type="logical" name="LTETE"> F  </i>
   <i type="logical" name="LTRIPLET"> F  </i>
   <i type="logical" name="LFXCEPS"> F  </i>
   <i type="logical" name="LFXHEG"> F  </i>
   <i type="int" name="NATURALO">     2</i>
   <i type="logical" name="L2ORDER"> F  </i>
   <i type="logical" name="LMP2LT"> F  </i>
   <i type="logical" name="LUSEW"> F  </i>
   <i name="ENCUTGW">     -2.00000000</i>
   <i name="ENCUTGWSOFT">     -2.00000000</i>
   <i name="ENCUTLF">     -1.00000000</i>
   <i type="int" name="LMAXMP2">    -1</i>
   <i name="SCISSOR">      0.00000000</i>
   <i type="int" name="NOMEGA">     0</i>
   <i type="int" name="NOMEGAR">     0</i>
   <i type="int" name="NBANDSGW">    -1</i>
   <i type="int" name="NBANDSO">    -1</i>
   <i type="int" name="NBANDSV">    -1</i>
   <i type="int" name="NELM">   200</i>
   <i type="int" name="NELMHF">     1</i>
   <i type="int" name="DIM">     3</i>
   <i type="int" name="ANTIRES">     0</i>
   <i name="OMEGAMAX">    -30.00000000</i>
   <i name="OMEGAMIN">    -30.00000000</i>
   <i name="OMEGATL">   -200.00000000</i>
   <i type="int" name="OMEGAGRID">   140</i>
   <i name="CSHIFT">     -0.10000000</i>
   <i type="logical" name="SELFENERGY"> F  </i>
   <i type="logical" name="LSPECTRAL"> F  </i>
   <i type="logical" name="LSPECTRALGW"> F  </i>
   <i type="logical" name="LSINGLES"> F  </i>
   <i type="logical" name="LFERMIGW"> F  </i>
   <i type="logical" name="ODDONLYGW"> F  </i>
   <i type="logical" name="EVENONLYGW"> F  </i>
   <i type="int" name="NKREDLFX">     1</i>
   <i type="int" name="NKREDLFY">     1</i>
   <i type="int" name="NKREDLFZ">     1</i>
   <i type="int" name="MAXMEM">  2800</i>
   <i type="int" name="TELESCOPE">     0</i>
   <i type="int" name="TAUPAR">     1</i>
   <i type="int" name="OMEGAPAR">    -1</i>
   <i name="LAMBDA">      1.00000000</i>
  </separator>
  <separator name="External order field" >
   <i name="OFIELD_KAPPA">      0.00000000</i>
   <v name="OFIELD_K">      0.00000000      0.00000000      0.00000000</v>
   <i name="OFIELD_Q6_NEAR">      0.00000000</i>
   <i name="OFIELD_Q6_FAR">      0.00000000</i>
   <i name="OFIELD_A">      0.00000000</i>
  </separator>
  <separator name="solvation model" >
   <i type="logical" name="LSOL"> F  </i>
  </separator>
 </parameters>
 <atominfo>
  <atoms>     150 </atoms>
  <types>       4 </types>
  <array name="atoms" >
   <dimension dim="1">ion</dimension>
   <field type="string">element</field>
   <field type="int">atomtype</field>
   <set>
    <rc><c>C </c><c>   1</c></rc>
    <rc><c>C </c><c>   1</c></rc>
    <rc><c>C </c><c>   1</c></rc>
    <rc><c>C </c><c>   1</c></rc>
    <rc><c>C </c><c>   1</c></rc>
    <rc><c>C </c><c>   1</c></rc>
    <rc><c>C </c><c>   1</c></rc>
    <rc><c>C </c><c>   1</c></rc>
    <rc><c>C </c><c>   1</c></rc>
    <rc><c>C </c><c>   1</c></rc>
    <rc><c>C </c><c>   1</c></rc>
    <rc><c>C </c><c>   1</c></rc>
    <rc><c>C </c><c>   1</c></rc>
    <rc><c>C </c><c>   1</c></rc>
    <rc><c>C </c><c>   1</c></rc>
    <rc><c>C </c><c>   1</c></rc>
    <rc><c>C </c><c>   1</c></rc>
    <rc><c>C </c><c>   1</c></rc>
    <rc><c>C </c><c>   1</c></rc>
    <rc><c>C </c><c>   1</c></rc>
    <rc><c>C </c><c>   1</c></rc>
    <rc><c>C </c><c>   1</c></rc>
    <rc><c>C </c><c>   1</c></rc>
    <rc><c>C </c><c>   1</c></rc>
    <rc><c>C </c><c>   1</c></rc>
    <rc><c>C </c><c>   1</c></rc>
    <rc><c>C </c><c>   1</c></rc>
    <rc><c>C </c><c>   1</c></rc>
    <rc><c>C </c><c>   1</c></rc>
    <rc><c>C </c><c>   1</c></rc>
    <rc><c>C </c><c>   1</c></rc>
    <rc><c>C </c><c>   1</c></rc>
    <rc><c>C </c><c>   1</c></rc>
    <rc><c>C </c><c>   1</c></rc>
    <rc><c>C </c><c>   1</c></rc>
    <rc><c>C </c><c>   1</c></rc>
    <rc><c>C </c><c>   1</c></rc>
    <rc><c>C </c><c>   1</c></rc>
    <rc><c>C </c><c>   1</c></rc>
    <rc><c>C </c><c>   1</c></rc>
    <rc><c>C </c><c>   1</c></rc>
    <rc><c>C </c><c>   1</c></rc>
    <rc><c>C </c><c>   1</c></rc>
    <rc><c>C </c><c>   1</c></rc>
    <rc><c>C </c><c>   1</c></rc>
    <rc><c>C </c><c>   1</c></rc>
    <rc><c>C </c><c>   1</c></rc>
    <rc><c>C </c><c>   1</c></rc>
    <rc><c>C </c><c>   1</c></rc>
    <rc><c>C </c><c>   1</c></rc>
    <rc><c>C </c><c>   1</c></rc>
    <rc><c>C </c><c>   1</c></rc>
    <rc><c>C </c><c>   1</c></rc>
    <rc><c>C </c><c>   1</c></rc>
    <rc><c>C </c><c>   1</c></rc>
    <rc><c>C </c><c>   1</c></rc>
    <rc><c>C </c><c>   1</c></rc>
    <rc><c>C </c><c>   1</c></rc>
    <rc><c>C </c><c>   1</c></rc>
    <rc><c>C </c><c>   1</c></rc>
    <rc><c>C </c><c>   1</c></rc>
    <rc><c>C </c><c>   1</c></rc>
    <rc><c>C </c><c>   1</c></rc>
    <rc><c>C </c><c>   1</c></rc>
    <rc><c>C </c><c>   1</c></rc>
    <rc><c>C </c><c>   1</c></rc>
    <rc><c>H </c><c>   2</c></rc>
    <rc><c>H </c><c>   2</c></rc>
    <rc><c>H </c><c>   2</c></rc>
    <rc><c>H </c><c>   2</c></rc>
    <rc><c>H </c><c>   2</c></rc>
    <rc><c>H </c><c>   2</c></rc>
    <rc><c>H </c><c>   2</c></rc>
    <rc><c>H </c><c>   2</c></rc>
    <rc><c>H </c><c>   2</c></rc>
    <rc><c>H </c><c>   2</c></rc>
    <rc><c>H </c><c>   2</c></rc>
    <rc><c>H </c><c>   2</c></rc>
    <rc><c>H </c><c>   2</c></rc>
    <rc><c>H </c><c>   2</c></rc>
    <rc><c>H </c><c>   2</c></rc>
    <rc><c>H </c><c>   2</c></rc>
    <rc><c>H </c><c>   2</c></rc>
    <rc><c>H </c><c>   2</c></rc>
    <rc><c>H </c><c>   2</c></rc>
    <rc><c>H </c><c>   2</c></rc>
    <rc><c>H </c><c>   2</c></rc>
    <rc><c>H </c><c>   2</c></rc>
    <rc><c>H </c><c>   2</c></rc>
    <rc><c>H </c><c>   2</c></rc>
    <rc><c>H </c><c>   2</c></rc>
    <rc><c>H </c><c>   2</c></rc>
    <rc><c>H </c><c>   2</c></rc>
    <rc><c>H </c><c>   2</c></rc>
    <rc><c>H </c><c>   2</c></rc>
    <rc><c>H </c><c>   2</c></rc>
    <rc><c>H </c><c>   2</c></rc>
    <rc><c>H </c><c>   2</c></rc>
    <rc><c>H </c><c>   2</c></rc>
    <rc><c>H </c><c>   2</c></rc>
    <rc><c>H </c><c>   2</c></rc>
    <rc><c>H </c><c>   2</c></rc>
    <rc><c>H </c><c>   2</c></rc>
    <rc><c>H </c><c>   2</c></rc>
    <rc><c>H </c><c>   2</c></rc>
    <rc><c>H </c><c>   2</c></rc>
    <rc><c>H </c><c>   2</c></rc>
    <rc><c>H </c><c>   2</c></rc>
    <rc><c>H </c><c>   2</c></rc>
    <rc><c>H </c><c>   2</c></rc>
    <rc><c>H </c><c>   2</c></rc>
    <rc><c>H </c><c>   2</c></rc>
    <rc><c>H </c><c>   2</c></rc>
    <rc><c>H </c><c>   2</c></rc>
    <rc><c>H </c><c>   2</c></rc>
    <rc><c>H </c><c>   2</c></rc>
    <rc><c>H </c><c>   2</c></rc>
    <rc><c>H </c><c>   2</c></rc>
    <rc><c>H </c><c>   2</c></rc>
    <rc><c>H </c><c>   2</c></rc>
    <rc><c>N </c><c>   3</c></rc>
    <rc><c>N </c><c>   3</c></rc>
    <rc><c>N </c><c>   3</c></rc>
    <rc><c>N </c><c>   3</c></rc>
    <rc><c>N </c><c>   3</c></rc>
    <rc><c>N </c><c>   3</c></rc>
    <rc><c>N </c><c>   3</c></rc>
    <rc><c>N </c><c>   3</c></rc>
    <rc><c>N </c><c>   3</c></rc>
    <rc><c>N </c><c>   3</c></rc>
    <rc><c>N </c><c>   3</c></rc>
    <rc><c>N </c><c>   3</c></rc>
    <rc><c>N </c><c>   3</c></rc>
    <rc><c>N </c><c>   3</c></rc>
    <rc><c>N </c><c>   3</c></rc>
    <rc><c>N </c><c>   3</c></rc>
    <rc><c>N </c><c>   3</c></rc>
    <rc><c>N </c><c>   3</c></rc>
    <rc><c>N </c><c>   3</c></rc>
    <rc><c>N </c><c>   3</c></rc>
    <rc><c>N </c><c>   3</c></rc>
    <rc><c>N </c><c>   3</c></rc>
    <rc><c>N </c><c>   3</c></rc>
    <rc><c>N </c><c>   3</c></rc>
    <rc><c>O </c><c>   4</c></rc>
    <rc><c>O </c><c>   4</c></rc>
    <rc><c>O </c><c>   4</c></rc>
    <rc><c>O </c><c>   4</c></rc>
    <rc><c>O </c><c>   4</c></rc>
    <rc><c>O </c><c>   4</c></rc>
   </set>
  </array>
  <array name="atomtypes" >
   <dimension dim="1">type</dimension>
   <field type="int">atomspertype</field>
   <field type="string">element</field>
   <field>mass</field>
   <field>valence</field>
   <field type="string">pseudopotential</field>
   <set>
    <rc><c>  66</c><c>C </c><c>     12.01100000</c><c>      4.00000000</c><c>  PAW_PBE C 08Apr2002                   </c></rc>
    <rc><c>  54</c><c>H </c><c>      1.00000000</c><c>      1.00000000</c><c>  PAW_PBE H 15Jun2001                   </c></rc>
    <rc><c>  24</c><c>N </c><c>     14.00100000</c><c>      5.00000000</c><c>  PAW_PBE N 08Apr2002                   </c></rc>
    <rc><c>   6</c><c>O </c><c>     16.00000000</c><c>      6.00000000</c><c>  PAW_PBE O 08Apr2002                   </c></rc>
   </set>
  </array>
 </atominfo>
 <structure name="initialpos" >
  <crystal>
   <varray name="basis" >
    <v>      23.01715906       0.00907727       0.00000000 </v>
    <v>     -11.50051326      20.00867538       0.00000000 </v>
    <v>       0.00000000       0.00000000      20.00000000 </v>
   </varray>
   <i name="volume">   9212.94514079 </i>
   <varray name="rec_basis" >
    <v>       0.04343600       0.02496599       0.00000000 </v>
    <v>      -0.00001971       0.04996699       0.00000000 </v>
    <v>       0.00000000       0.00000000       0.05000000 </v>
   </varray>
  </crystal>
  <varray name="positions" >
   <v>       0.52123899       0.04115968       0.48408897 </v>
   <v>       0.48947242       0.07762214       0.50186238 </v>
   <v>       0.59322265       0.07938948       0.47865679 </v>
   <v>       0.52323962       0.14570098       0.51732947 </v>
   <v>       0.62818071       0.14573453       0.50227340 </v>
   <v>       0.51358456       0.92850588       0.48624434 </v>
   <v>       0.48047446       0.85897451       0.48507737 </v>
   <v>       0.40970626       0.82367959       0.48103396 </v>
   <v>       0.59375272       0.17935975       0.52210114 </v>
   <v>       0.41528460       0.48954959       0.49625266 </v>
   <v>       0.38007346       0.52366316       0.50526770 </v>
   <v>       0.41621121       0.59413369       0.50653230 </v>
   <v>       0.58826906       0.41642936       0.54131176 </v>
   <v>       0.62524456       0.48477131       0.52364263 </v>
   <v>       0.59029278       0.51604639       0.50095721 </v>
   <v>       0.07777696       0.59354952       0.49690404 </v>
   <v>       0.14515367       0.62870060       0.51595563 </v>
   <v>       0.17716503       0.59203787       0.53282616 </v>
   <v>       0.82259526       0.41609589       0.49723123 </v>
   <v>       0.85895353       0.38154945       0.49682478 </v>
   <v>       0.92848174       0.41828613       0.49238618 </v>
   <v>       0.49105904       0.18785147       0.52178340 </v>
   <v>       0.49068119       0.30519993       0.52218788 </v>
   <v>       0.48463464       0.21599957       0.58212285 </v>
   <v>       0.48033454       0.18510647       0.65005197 </v>
   <v>       0.69921802       0.51642590       0.51695344 </v>
   <v>       0.81618575       0.51841476       0.49598594 </v>
   <v>       0.74459040       0.52894109       0.57023202 </v>
   <v>       0.73162786       0.54201795       0.64144124 </v>
   <v>       0.81834856       0.30722228       0.49885773 </v>
   <v>       0.70243441       0.18885473       0.50028114 </v>
   <v>       0.79342900       0.27082443       0.55904868 </v>
   <v>       0.82620692       0.29616502       0.62654076 </v>
   <v>       0.51371025       0.81767929       0.48728490 </v>
   <v>       0.51641652       0.70178228       0.48770815 </v>
   <v>       0.52371835       0.79153576       0.54754986 </v>
   <v>       0.52873080       0.82224866       0.61578448 </v>
   <v>       0.30594284       0.49201028       0.51114432 </v>
   <v>       0.18889911       0.49318434       0.51529938 </v>
   <v>       0.27346525       0.48702578       0.57261337 </v>
   <v>       0.30236017       0.48451041       0.63988442 </v>
   <v>       0.18733096       0.70227086       0.50692039 </v>
   <v>       0.30147690       0.81866978       0.48323806 </v>
   <v>       0.22035725       0.74897247       0.55907214 </v>
   <v>       0.19449732       0.73765012       0.63029472 </v>
   <v>       0.48217163       0.96709714       0.47666273 </v>
   <v>       0.37570022       0.86013532       0.47521670 </v>
   <v>       0.41085857       0.93005025       0.46642395 </v>
   <v>       0.48444815       0.52077766       0.48239101 </v>
   <v>       0.48495944       0.62764795       0.48968084 </v>
   <v>       0.51763068       0.59198653       0.47211901 </v>
   <v>       0.52107674       0.48295361       0.48858985 </v>
   <v>       0.48831922       0.41104763       0.49020919 </v>
   <v>       0.52047337       0.37904071       0.52029439 </v>
   <v>       0.04060572       0.52408538       0.48669994 </v>
   <v>       0.14513701       0.52358499       0.51468714 </v>
   <v>       0.07980178       0.49098200       0.48748454 </v>
   <v>       0.96607003       0.48799954       0.48148969 </v>
   <v>       0.92714776       0.52082333       0.47398730 </v>
   <v>       0.85801587       0.48601199       0.48830872 </v>
   <v>       0.47717738       0.26646660       0.46340493 </v>
   <v>       0.78150704       0.52813961       0.44296860 </v>
   <v>       0.73809265       0.21597062       0.44040976 </v>
   <v>       0.52616121       0.73831078       0.42834444 </v>
   <v>       0.21227801       0.47895534       0.45562325 </v>
   <v>       0.25679404       0.78258451       0.43103633 </v>
   <v>       0.43523722       0.05167405       0.50682726 </v>
   <v>       0.60828588       0.01566226       0.41858604 </v>
   <v>       0.47262154       0.10012113       0.62223746 </v>
   <v>       0.67973482       0.08493044       0.44422570 </v>
   <v>       0.45199366       0.19981407       0.68347939 </v>
   <v>       0.56729877       0.95400879       0.49537116 </v>
   <v>       0.60478349       0.27070392       0.54893525 </v>
   <v>       0.39734794       0.72874729       0.47401363 </v>
   <v>       0.38714085       0.43573183       0.50349251 </v>
   <v>       0.61940915       0.57009875       0.49661635 </v>
   <v>       0.66576718       0.41348016       0.58857588 </v>
   <v>       0.33461050       0.60646160       0.52621603 </v>
   <v>       0.05307336       0.62308025       0.49386582 </v>
   <v>       0.95475567       0.39046794       0.49878399 </v>
   <v>       0.72741338       0.33295984       0.49716085 </v>
   <v>       0.26172033       0.67128539       0.57232552 </v>
   <v>       0.53166791       0.20710517       0.67106552 </v>
   <v>       0.71294406       0.49538534       0.67112958 </v>
   <v>       0.77994259       0.57830640       0.66372244 </v>
   <v>       0.64689533       0.54017967       0.62346286 </v>
   <v>       0.80846175       0.32918677       0.64725868 </v>
   <v>       0.80839893       0.25301854       0.66023718 </v>
   <v>       0.91431543       0.37150292       0.60324182 </v>
   <v>       0.47723528       0.80439136       0.63458130 </v>
   <v>       0.55244970       0.80282030       0.64984983 </v>
   <v>       0.54249207       0.91136321       0.59580009 </v>
   <v>       0.33347509       0.53641221       0.65851408 </v>
   <v>       0.26056200       0.45871244       0.67517796 </v>
   <v>       0.37839378       0.47414261       0.61239380 </v>
   <v>       0.21899757       0.71491308       0.65963769 </v>
   <v>       0.21028486       0.78670018       0.65289622 </v>
   <v>       0.10837893       0.65602107       0.61509897 </v>
   <v>       0.39683711       0.00368447       0.42507245 </v>
   <v>       0.32593715       0.92889238       0.43508413 </v>
   <v>       0.66839568       0.25852702       0.57209730 </v>
   <v>       0.32639902       0.73149160       0.46785317 </v>
   <v>       0.59798119       0.60444439       0.41614110 </v>
   <v>       0.59892810       0.67647617       0.43610977 </v>
   <v>       0.40554853       0.32193522       0.46355428 </v>
   <v>       0.40878124       0.39114296       0.42865932 </v>
   <v>       0.58850163       0.34814416       0.60422635 </v>
   <v>       0.40927189       0.67058092       0.54986143 </v>
   <v>       0.02024322       0.41055351       0.42735580 </v>
   <v>       0.08665434       0.40828750       0.46231988 </v>
   <v>       0.92126540       0.60253082       0.44547991 </v>
   <v>       0.99337427       0.60535314       0.42293178 </v>
   <v>       0.72875288       0.40582569       0.49243186 </v>
   <v>       0.24871514       0.59475404       0.59358060 </v>
   <v>       0.46908397       0.28353482       0.41509427 </v>
   <v>       0.79906143       0.53444766       0.39123595 </v>
   <v>       0.71910833       0.19207880       0.39187701 </v>
   <v>       0.53219136       0.72016341       0.37975994 </v>
   <v>       0.18581456       0.47091636       0.40809083 </v>
   <v>       0.26736502       0.79881808       0.37889511 </v>
   <v>       0.63061369       0.05246101       0.45309989 </v>
   <v>       0.37374843       0.75460081       0.48634833 </v>
   <v>       0.63096648       0.24707764       0.53861932 </v>
   <v>       0.38479231       0.63164292       0.51777877 </v>
   <v>       0.61879863       0.38356004       0.57066295 </v>
   <v>       0.24233980       0.62284516       0.55822225 </v>
   <v>       0.75399529       0.38263070       0.50786704 </v>
   <v>       0.48830688       0.27589221       0.58112787 </v>
   <v>       0.80008678       0.52553930       0.55891442 </v>
   <v>       0.73417073       0.21415204       0.55869873 </v>
   <v>       0.52138083       0.73238502       0.54650667 </v>
   <v>       0.21747197       0.49135247       0.57341683 </v>
   <v>       0.27889242       0.80399566       0.54651849 </v>
   <v>       0.37326788       0.96029832       0.45118218 </v>
   <v>       0.58279663       0.62816379       0.44837523 </v>
   <v>       0.42417150       0.37195761       0.46565127 </v>
   <v>       0.05442529       0.42611877       0.46475422 </v>
   <v>       0.95507604       0.58780126       0.45624495 </v>
   <v>       0.48077106       0.21057897       0.46344161 </v>
   <v>       0.72215706       0.52380262       0.45377966 </v>
   <v>       0.79343057       0.27605955       0.44019880 </v>
   <v>       0.52132400       0.79371921       0.42856679 </v>
   <v>       0.27162724       0.48195434       0.45372688 </v>
   <v>       0.20234528       0.72335403       0.44323129 </v>
   <v>       0.44709729       0.11415220       0.65030626 </v>
   <v>       0.68850736       0.56927518       0.64739191 </v>
   <v>       0.89746424       0.32871531       0.62604696 </v>
   <v>       0.56771152       0.89320400       0.61798213 </v>
   <v>       0.33867962       0.44958865       0.64036524 </v>
   <v>       0.12355387       0.69959544       0.63582295 </v>
  </varray>
 </structure>
 <calculation>
  <scstep>
   <time name="dav">  495.94  501.07</time>
   <time name="total">  496.08  501.22</time>
   <energy>
    <i name="alphaZ">    110.26155692 </i>
    <i name="ewald">  65913.95512080 </i>
    <i name="hartreedc"> -82067.81942342 </i>
    <i name="XCdc">   1720.83925656 </i>
    <i name="pawpsdc">  43556.01010888 </i>
    <i name="pawaedc"> -43648.98894989 </i>
    <i name="eentropy">     -0.00000000 </i>
    <i name="bandstr">  -5937.18206615 </i>
    <i name="atom">  19329.03803840 </i>
    <i name="e_fr_energy">  -1023.88635790 </i>
    <i name="e_wo_entrp">  -1023.88635790 </i>
    <i name="e_0_energy">  -1023.88635790 </i>
   </energy>
  </scstep>
  <scstep>
   <time name="dav">  553.69  559.28</time>
   <time name="total">  553.70  559.28</time>
   <energy>
    <i name="e_fr_energy">  -1024.96130401 </i>
    <i name="e_wo_entrp">  -1024.96130401 </i>
    <i name="e_0_energy">  -1024.96130401 </i>
   </energy>
  </scstep>
  <scstep>
   <time name="dav">  607.43  613.57</time>
   <time name="total">  607.43  613.58</time>
   <energy>
    <i name="e_fr_energy">  -1024.98823398 </i>
    <i name="e_wo_entrp">  -1024.98823398 </i>
    <i name="e_0_energy">  -1024.98823398 </i>
   </energy>
  </scstep>
  <scstep>
   <time name="dav">  548.69  554.28</time>
   <time name="total">  548.69  554.28</time>
   <energy>
    <i name="e_fr_energy">  -1024.98873742 </i>
    <i name="e_wo_entrp">  -1024.98873742 </i>
    <i name="e_0_energy">  -1024.98873742 </i>
   </energy>
  </scstep>
  <scstep>
   <time name="dav">  530.76  536.15</time>
   <time name="total">  530.76  536.15</time>
   <energy>
    <i name="e_fr_energy">  -1024.98876011 </i>
    <i name="e_wo_entrp">  -1024.98876011 </i>
    <i name="e_0_energy">  -1024.98876011 </i>
   </energy>
  </scstep>
  <scstep>
   <time name="dav">  430.69  435.09</time>
   <time name="total">  430.69  435.09</time>
   <energy>
    <i name="alphaZ">    110.26155692 </i>
    <i name="ewald">  65913.95512080 </i>
    <i name="hartreedc"> -82067.81942342 </i>
    <i name="XCdc">   1720.83925656 </i>
    <i name="pawpsdc">  43556.01010888 </i>
    <i name="pawaedc"> -43648.98894989 </i>
    <i name="eentropy">     -0.00000000 </i>
    <i name="bandstr">  -5938.28446924 </i>
    <i name="atom">  19329.03803840 </i>
    <i name="e_fr_energy">  -1024.98876099 </i>
    <i name="e_wo_entrp">  -1024.98876099 </i>
    <i name="e_0_energy">  -1024.98876099 </i>
   </energy>
  </scstep>
  <structure>
   <crystal>
    <varray name="basis" >
     <v>      23.01715906       0.00907727       0.00000000 </v>
     <v>     -11.50051326      20.00867538       0.00000000 </v>
     <v>       0.00000000       0.00000000      20.00000000 </v>
    </varray>
    <i name="volume">   9212.94514079 </i>
    <varray name="rec_basis" >
     <v>       0.04343600       0.02496599       0.00000000 </v>
     <v>      -0.00001971       0.04996699       0.00000000 </v>
     <v>       0.00000000       0.00000000       0.05000000 </v>
    </varray>
   </crystal>
   <varray name="positions" >
    <v>       0.52123899       0.04115968       0.48408897 </v>
    <v>       0.48947242       0.07762214       0.50186238 </v>
    <v>       0.59322265       0.07938948       0.47865679 </v>
    <v>       0.52323962       0.14570098       0.51732947 </v>
    <v>       0.62818071       0.14573453       0.50227340 </v>
    <v>       0.51358456       0.92850588       0.48624434 </v>
    <v>       0.48047446       0.85897451       0.48507737 </v>
    <v>       0.40970626       0.82367959       0.48103396 </v>
    <v>       0.59375272       0.17935975       0.52210114 </v>
    <v>       0.41528460       0.48954959       0.49625266 </v>
    <v>       0.38007346       0.52366316       0.50526770 </v>
    <v>       0.41621121       0.59413369       0.50653230 </v>
    <v>       0.58826906       0.41642936       0.54131176 </v>
    <v>       0.62524456       0.48477131       0.52364263 </v>
    <v>       0.59029278       0.51604639       0.50095721 </v>
    <v>       0.07777696       0.59354952       0.49690404 </v>
    <v>       0.14515367       0.62870060       0.51595563 </v>
    <v>       0.17716503       0.59203787       0.53282616 </v>
    <v>       0.82259526       0.41609589       0.49723123 </v>
    <v>       0.85895353       0.38154945       0.49682478 </v>
    <v>       0.92848174       0.41828613       0.49238618 </v>
    <v>       0.49105904       0.18785147       0.52178340 </v>
    <v>       0.49068119       0.30519993       0.52218788 </v>
    <v>       0.48463464       0.21599957       0.58212285 </v>
    <v>       0.48033454       0.18510647       0.65005197 </v>
    <v>       0.69921802       0.51642590       0.51695344 </v>
    <v>       0.81618575       0.51841476       0.49598594 </v>
    <v>       0.74459040       0.52894109       0.57023202 </v>
    <v>       0.73162786       0.54201795       0.64144124 </v>
    <v>       0.81834856       0.30722228       0.49885773 </v>
    <v>       0.70243441       0.18885473       0.50028114 </v>
    <v>       0.79342900       0.27082443       0.55904868 </v>
    <v>       0.82620692       0.29616502       0.62654076 </v>
    <v>       0.51371025       0.81767929       0.48728490 </v>
    <v>       0.51641652       0.70178228       0.48770815 </v>
    <v>       0.52371835       0.79153576       0.54754986 </v>
    <v>       0.52873080       0.82224866       0.61578448 </v>
    <v>       0.30594284       0.49201028       0.51114432 </v>
    <v>       0.18889911       0.49318434       0.51529938 </v>
    <v>       0.27346525       0.48702578       0.57261337 </v>
    <v>       0.30236017       0.48451041       0.63988442 </v>
    <v>       0.18733096       0.70227086       0.50692039 </v>
    <v>       0.30147690       0.81866978       0.48323806 </v>
    <v>       0.22035725       0.74897247       0.55907214 </v>
    <v>       0.19449732       0.73765012       0.63029472 </v>
    <v>       0.48217163       0.96709714       0.47666273 </v>
    <v>       0.37570022       0.86013532       0.47521670 </v>
    <v>       0.41085857       0.93005025       0.46642395 </v>
    <v>       0.48444815       0.52077766       0.48239101 </v>
    <v>       0.48495944       0.62764795       0.48968084 </v>
    <v>       0.51763068       0.59198653       0.47211901 </v>
    <v>       0.52107674       0.48295361       0.48858985 </v>
    <v>       0.48831922       0.41104763       0.49020919 </v>
    <v>       0.52047337       0.37904071       0.52029439 </v>
    <v>       0.04060572       0.52408538       0.48669994 </v>
    <v>       0.14513701       0.52358499       0.51468714 </v>
    <v>       0.07980178       0.49098200       0.48748454 </v>
    <v>       0.96607003       0.48799954       0.48148969 </v>
    <v>       0.92714776       0.52082333       0.47398730 </v>
    <v>       0.85801587       0.48601199       0.48830872 </v>
    <v>       0.47717738       0.26646660       0.46340493 </v>
    <v>       0.78150704       0.52813961       0.44296860 </v>
    <v>       0.73809265       0.21597062       0.44040976 </v>
    <v>       0.52616121       0.73831078       0.42834444 </v>
    <v>       0.21227801       0.47895534       0.45562325 </v>
    <v>       0.25679404       0.78258451       0.43103633 </v>
    <v>       0.43523722       0.05167405       0.50682726 </v>
    <v>       0.60828588       0.01566226       0.41858604 </v>
    <v>       0.47262154       0.10012113       0.62223746 </v>
    <v>       0.67973482       0.08493044       0.44422570 </v>
    <v>       0.45199366       0.19981407       0.68347939 </v>
    <v>       0.56729877       0.95400879       0.49537116 </v>
    <v>       0.60478349       0.27070392       0.54893525 </v>
    <v>       0.39734794       0.72874729       0.47401363 </v>
    <v>       0.38714085       0.43573183       0.50349251 </v>
    <v>       0.61940915       0.57009875       0.49661635 </v>
    <v>       0.66576718       0.41348016       0.58857588 </v>
    <v>       0.33461050       0.60646160       0.52621603 </v>
    <v>       0.05307336       0.62308025       0.49386582 </v>
    <v>       0.95475567       0.39046794       0.49878399 </v>
    <v>       0.72741338       0.33295984       0.49716085 </v>
    <v>       0.26172033       0.67128539       0.57232552 </v>
    <v>       0.53166791       0.20710517       0.67106552 </v>
    <v>       0.71294406       0.49538534       0.67112958 </v>
    <v>       0.77994259       0.57830640       0.66372244 </v>
    <v>       0.64689533       0.54017967       0.62346286 </v>
    <v>       0.80846175       0.32918677       0.64725868 </v>
    <v>       0.80839893       0.25301854       0.66023718 </v>
    <v>       0.91431543       0.37150292       0.60324182 </v>
    <v>       0.47723528       0.80439136       0.63458130 </v>
    <v>       0.55244970       0.80282030       0.64984983 </v>
    <v>       0.54249207       0.91136321       0.59580009 </v>
    <v>       0.33347509       0.53641221       0.65851408 </v>
    <v>       0.26056200       0.45871244       0.67517796 </v>
    <v>       0.37839378       0.47414261       0.61239380 </v>
    <v>       0.21899757       0.71491308       0.65963769 </v>
    <v>       0.21028486       0.78670018       0.65289622 </v>
    <v>       0.10837893       0.65602107       0.61509897 </v>
    <v>       0.39683711       0.00368447       0.42507245 </v>
    <v>       0.32593715       0.92889238       0.43508413 </v>
    <v>       0.66839568       0.25852702       0.57209730 </v>
    <v>       0.32639902       0.73149160       0.46785317 </v>
    <v>       0.59798119       0.60444439       0.41614110 </v>
    <v>       0.59892810       0.67647617       0.43610977 </v>
    <v>       0.40554853       0.32193522       0.46355428 </v>
    <v>       0.40878124       0.39114296       0.42865932 </v>
    <v>       0.58850163       0.34814416       0.60422635 </v>
    <v>       0.40927189       0.67058092       0.54986143 </v>
    <v>       0.02024322       0.41055351       0.42735580 </v>
    <v>       0.08665434       0.40828750       0.46231988 </v>
    <v>       0.92126540       0.60253082       0.44547991 </v>
    <v>       0.99337427       0.60535314       0.42293178 </v>
    <v>       0.72875288       0.40582569       0.49243186 </v>
    <v>       0.24871514       0.59475404       0.59358060 </v>
    <v>       0.46908397       0.28353482       0.41509427 </v>
    <v>       0.79906143       0.53444766       0.39123595 </v>
    <v>       0.71910833       0.19207880       0.39187701 </v>
    <v>       0.53219136       0.72016341       0.37975994 </v>
    <v>       0.18581456       0.47091636       0.40809083 </v>
    <v>       0.26736502       0.79881808       0.37889511 </v>
    <v>       0.63061369       0.05246101       0.45309989 </v>
    <v>       0.37374843       0.75460081       0.48634833 </v>
    <v>       0.63096648       0.24707764       0.53861932 </v>
    <v>       0.38479231       0.63164292       0.51777877 </v>
    <v>       0.61879863       0.38356004       0.57066295 </v>
    <v>       0.24233980       0.62284516       0.55822225 </v>
    <v>       0.75399529       0.38263070       0.50786704 </v>
    <v>       0.48830688       0.27589221       0.58112787 </v>
    <v>       0.80008678       0.52553930       0.55891442 </v>
    <v>       0.73417073       0.21415204       0.55869873 </v>
    <v>       0.52138083       0.73238502       0.54650667 </v>
    <v>       0.21747197       0.49135247       0.57341683 </v>
    <v>       0.27889242       0.80399566       0.54651849 </v>
    <v>       0.37326788       0.96029832       0.45118218 </v>
    <v>       0.58279663       0.62816379       0.44837523 </v>
    <v>       0.42417150       0.37195761       0.46565127 </v>
    <v>       0.05442529       0.42611877       0.46475422 </v>
    <v>       0.95507604       0.58780126       0.45624495 </v>
    <v>       0.48077106       0.21057897       0.46344161 </v>
    <v>       0.72215706       0.52380262       0.45377966 </v>
    <v>       0.79343057       0.27605955       0.44019880 </v>
    <v>       0.52132400       0.79371921       0.42856679 </v>
    <v>       0.27162724       0.48195434       0.45372688 </v>
    <v>       0.20234528       0.72335403       0.44323129 </v>
    <v>       0.44709729       0.11415220       0.65030626 </v>
    <v>       0.68850736       0.56927518       0.64739191 </v>
    <v>       0.89746424       0.32871531       0.62604696 </v>
    <v>       0.56771152       0.89320400       0.61798213 </v>
    <v>       0.33867962       0.44958865       0.64036524 </v>
    <v>       0.12355387       0.69959544       0.63582295 </v>
   </varray>
  </structure>
  <varray name="forces" >
   <v>       0.00076011       0.00156389       0.00080103 </v>
   <v>       0.00079269      -0.00139569       0.00039545 </v>
   <v>      -0.00122145      -0.00383943      -0.00178493 </v>
   <v>      -0.00030845       0.00420203       0.00173807 </v>
   <v>       0.00315444       0.00088069      -0.00071830 </v>
   <v>      -0.00195474       0.00218809      -0.00171969 </v>
   <v>      -0.00348937      -0.00177210       0.00126085 </v>
   <v>      -0.00198235      -0.00309713      -0.00062894 </v>
   <v>      -0.00246159       0.00110587      -0.00003584 </v>
   <v>      -0.00044398      -0.00032622       0.00327902 </v>
   <v>      -0.00283864       0.00231712      -0.00167875 </v>
   <v>       0.00099110       0.00023797      -0.00163600 </v>
   <v>       0.00281041       0.00104606       0.00176736 </v>
   <v>       0.00152582      -0.00166729      -0.00055102 </v>
   <v>       0.00343966       0.00182320       0.00099688 </v>
   <v>       0.00099765      -0.00033167       0.00058109 </v>
   <v>      -0.00203180      -0.00094105       0.00116533 </v>
   <v>      -0.00131310       0.00313620       0.00221523 </v>
   <v>       0.00139731       0.00020702      -0.00242278 </v>
   <v>      -0.00228643      -0.00009629       0.00106873 </v>
   <v>       0.00173957       0.00321544       0.00057004 </v>
   <v>       0.00169618      -0.00361931      -0.00064687 </v>
   <v>      -0.00021834      -0.00043167      -0.00006907 </v>
   <v>      -0.00064244       0.00403231       0.00063006 </v>
   <v>      -0.00107840       0.00087920      -0.00228809 </v>
   <v>      -0.00374137      -0.00264010      -0.00136905 </v>
   <v>       0.00184073      -0.00233878      -0.00173765 </v>
   <v>       0.00154633       0.00092122      -0.00005458 </v>
   <v>       0.00187750      -0.00245335       0.00005013 </v>
   <v>      -0.00050589       0.00067749      -0.00044884 </v>
   <v>      -0.00145129      -0.00048882       0.00406100 </v>
   <v>       0.00201733      -0.00090690       0.00050097 </v>
   <v>      -0.00048924      -0.00038910      -0.00151184 </v>
   <v>      -0.00391600       0.00030442       0.00132521 </v>
   <v>       0.00157389      -0.00213807      -0.00370785 </v>
   <v>       0.00235205      -0.00443673      -0.00124531 </v>
   <v>       0.00017959       0.00045690      -0.00418546 </v>
   <v>      -0.00058981      -0.00013380       0.00331314 </v>
   <v>      -0.00022544      -0.00234138      -0.00301932 </v>
   <v>      -0.00031723      -0.00441731      -0.00014802 </v>
   <v>      -0.00010323       0.00005148       0.00079896 </v>
   <v>       0.00072134      -0.00205571       0.00608342 </v>
   <v>      -0.00040593      -0.00036994      -0.00166580 </v>
   <v>       0.00231515       0.00131610      -0.00253516 </v>
   <v>       0.00415448      -0.00193729      -0.00157880 </v>
   <v>      -0.00108993       0.00150628       0.00092024 </v>
   <v>      -0.00095416      -0.00061877       0.00195054 </v>
   <v>       0.00064905       0.00178051       0.00023670 </v>
   <v>      -0.00002082       0.00157089      -0.00260568 </v>
   <v>       0.00006299      -0.00136912       0.00250714 </v>
   <v>      -0.00271524      -0.00173917       0.00233099 </v>
   <v>      -0.00302033       0.00179466       0.00041930 </v>
   <v>       0.00407846      -0.00032858       0.00110059 </v>
   <v>      -0.00114531      -0.00233421      -0.00099190 </v>
   <v>       0.00350361       0.00005115       0.00100513 </v>
   <v>      -0.00391484      -0.00184579      -0.00142670 </v>
   <v>      -0.00139247       0.00151354       0.00066782 </v>
   <v>      -0.00282077       0.00024163      -0.00229528 </v>
   <v>      -0.00075925      -0.00268432       0.00147729 </v>
   <v>       0.00060001       0.00333638      -0.00048541 </v>
   <v>       0.00237583      -0.00334061       0.00212637 </v>
   <v>      -0.00358860      -0.00120902       0.00347244 </v>
   <v>       0.00076757      -0.00225862      -0.00373277 </v>
   <v>      -0.00335081       0.00417573       0.00180340 </v>
   <v>       0.00263337       0.00030355       0.00119038 </v>
   <v>      -0.00147717      -0.00065678       0.00457831 </v>
   <v>       0.00197163       0.00055087      -0.00083344 </v>
   <v>      -0.00093698       0.00042905      -0.00147219 </v>
   <v>       0.00352789       0.00101661      -0.00088589 </v>
   <v>      -0.00119631      -0.00086134      -0.00013305 </v>
   <v>       0.00106090       0.00121569       0.00271933 </v>
   <v>      -0.00183797       0.00099963       0.00013812 </v>
   <v>      -0.00239402       0.00086570      -0.00144350 </v>
   <v>      -0.00126787      -0.00059385      -0.00167892 </v>
   <v>       0.00193850      -0.00204439       0.00152450 </v>
   <v>       0.00032660      -0.00377641       0.00325297 </v>
   <v>       0.00076949      -0.00211547      -0.00052353 </v>
   <v>      -0.00190720      -0.00160868       0.00078230 </v>
   <v>      -0.00016775      -0.00125406       0.00051132 </v>
   <v>      -0.00142782      -0.00020205      -0.00030853 </v>
   <v>       0.00082693       0.00133981       0.00010854 </v>
   <v>       0.00002860      -0.00473146      -0.00026576 </v>
   <v>       0.00129702      -0.00181103       0.00352176 </v>
   <v>       0.00023478       0.00164127      -0.00257565 </v>
   <v>       0.00217794       0.00213901      -0.00081552 </v>
   <v>      -0.00000231      -0.00144281      -0.00064431 </v>
   <v>      -0.00191737       0.00291783      -0.00073077 </v>
   <v>       0.00145727       0.00089934       0.00016689 </v>
   <v>      -0.00055194       0.00154976      -0.00081611 </v>
   <v>       0.00021565       0.00208069       0.00045545 </v>
   <v>      -0.00040833      -0.00499117      -0.00032901 </v>
   <v>      -0.00203365       0.00054535      -0.00110934 </v>
   <v>       0.00086713       0.00081526      -0.00209896 </v>
   <v>      -0.00280458       0.00072981       0.00295291 </v>
   <v>      -0.00226747      -0.00228475       0.00150537 </v>
   <v>       0.00407660       0.00020531       0.00195465 </v>
   <v>       0.00129319      -0.00079149      -0.00144306 </v>
   <v>       0.00274179      -0.00247296       0.00072051 </v>
   <v>      -0.00204741       0.00047212      -0.00204432 </v>
   <v>       0.00154079       0.00101656      -0.00025648 </v>
   <v>      -0.00181140      -0.00035146      -0.00279003 </v>
   <v>       0.00186129      -0.00100381       0.00053119 </v>
   <v>      -0.00382843      -0.00054837       0.00418737 </v>
   <v>      -0.00072573      -0.00156765       0.00042809 </v>
   <v>      -0.00112508       0.00374557       0.00014813 </v>
   <v>      -0.00287420       0.00238745      -0.00107147 </v>
   <v>       0.00404202       0.00112378      -0.00186433 </v>
   <v>      -0.00203384      -0.00120701      -0.00198012 </v>
   <v>      -0.00349675      -0.00195301      -0.00290290 </v>
   <v>       0.00385989      -0.00308349      -0.00172148 </v>
   <v>       0.00040457       0.00018590      -0.00078319 </v>
   <v>      -0.00037945       0.00100727       0.00135301 </v>
   <v>       0.00411848      -0.00170187       0.00019906 </v>
   <v>       0.00080568       0.00283756      -0.00186400 </v>
   <v>      -0.00184930      -0.00038180      -0.00152216 </v>
   <v>      -0.00079227       0.00025995      -0.00114758 </v>
   <v>       0.00027860       0.00310923       0.00176553 </v>
   <v>      -0.00185075       0.00092613      -0.00263069 </v>
   <v>       0.00117000       0.00074079       0.00191042 </v>
   <v>      -0.00022379      -0.00036968      -0.00035173 </v>
   <v>       0.00383702       0.00449148      -0.00006303 </v>
   <v>      -0.00102483       0.00489060       0.00167345 </v>
   <v>       0.00171031      -0.00089892       0.00114008 </v>
   <v>      -0.00399242       0.00601747      -0.00057636 </v>
   <v>       0.00131744      -0.00174845      -0.00270202 </v>
   <v>      -0.00021580      -0.00031336      -0.00062915 </v>
   <v>      -0.00610684       0.00159790      -0.00625190 </v>
   <v>       0.00394786      -0.00237628       0.00785358 </v>
   <v>      -0.00149719       0.00193834       0.00166386 </v>
   <v>      -0.00091165       0.00196717      -0.00079748 </v>
   <v>      -0.00014141       0.00421143       0.00110957 </v>
   <v>      -0.00134768      -0.00447417      -0.00321557 </v>
   <v>      -0.00073839      -0.00008976       0.00010202 </v>
   <v>       0.00318424      -0.00333412       0.00261060 </v>
   <v>       0.00591720       0.00090051      -0.00303428 </v>
   <v>       0.00107744      -0.00441712       0.00084757 </v>
   <v>      -0.00036492       0.00455437       0.00332560 </v>
   <v>       0.00223672       0.00232118      -0.00128800 </v>
   <v>      -0.00045377       0.00252937      -0.00081489 </v>
   <v>       0.00284846       0.00356914      -0.00056363 </v>
   <v>      -0.00134849      -0.00106512       0.00127899 </v>
   <v>      -0.00010115       0.00001468      -0.00599637 </v>
   <v>      -0.00506732       0.00089885      -0.00173812 </v>
   <v>       0.00201316       0.00278187      -0.00255165 </v>
   <v>       0.00117141       0.00144910       0.00518482 </v>
   <v>       0.00029265       0.00052838       0.00096219 </v>
   <v>       0.00098479      -0.00248589       0.00206345 </v>
   <v>       0.00184889       0.00118105       0.00080767 </v>
   <v>       0.00080802      -0.00383623      -0.00030960 </v>
   <v>      -0.00090500       0.00070639       0.00064631 </v>
  </varray>
  <varray name="stress" >
   <v>      -0.01549367      -0.00389669       0.02815938 </v>
   <v>      -0.00389668       0.00802264       0.00670062 </v>
   <v>       0.02815938       0.00670063      -0.38588772 </v>
  </varray>
  <energy>
   <i name="e_fr_energy">  -1029.40969531 </i>
   <i name="e_wo_entrp">  -1029.40969531 </i>
   <i name="e_0_energy">     -0.00000000 </i>
  </energy>
  <time name="totalsc"> 3700.16 3739.11</time>
  <eigenvalues>
   <array>
    <dimension dim="1">band</dimension>
    <dimension dim="2">kpoint</dimension>
    <dimension dim="3">spin</dimension>
    <field>eigene</field>
    <field>occ</field>
    <set>
     <set comment="spin 1">
      <set comment="kpoint 1">
       <r>  -24.8787    1.0000 </r>
       <r>  -24.8651    1.0000 </r>
       <r>  -24.8631    1.0000 </r>
       <r>  -24.8554    1.0000 </r>
       <r>  -24.7961    1.0000 </r>
       <r>  -24.7813    1.0000 </r>
       <r>  -24.1653    1.0000 </r>
       <r>  -24.1499    1.0000 </r>
       <r>  -24.1298    1.0000 </r>
       <r>  -24.1127    1.0000 </r>
       <r>  -24.0781    1.0000 </r>
       <r>  -24.0536    1.0000 </r>
       <r>  -22.9576    1.0000 </r>
       <r>  -22.8934    1.0000 </r>
       <r>  -22.8147    1.0000 </r>
       <r>  -22.7895    1.0000 </r>
       <r>  -22.7409    1.0000 </r>
       <r>  -22.6730    1.0000 </r>
       <r>  -22.6006    1.0000 </r>
       <r>  -22.5324    1.0000 </r>
       <r>  -22.4423    1.0000 </r>
       <r>  -22.4283    1.0000 </r>
       <r>  -22.3752    1.0000 </r>
       <r>  -22.3686    1.0000 </r>
       <r>  -22.1508    1.0000 </r>
       <r>  -22.1383    1.0000 </r>
       <r>  -22.0580    1.0000 </r>
       <r>  -22.0395    1.0000 </r>
       <r>  -21.9460    1.0000 </r>
       <r>  -21.9344    1.0000 </r>
       <r>  -20.3518    1.0000 </r>
       <r>  -20.2814    1.0000 </r>
       <r>  -20.2504    1.0000 </r>
       <r>  -20.1236    1.0000 </r>
       <r>  -20.0572    1.0000 </r>
       <r>  -20.0112    1.0000 </r>
       <r>  -19.6738    1.0000 </r>
       <r>  -19.6638    1.0000 </r>
       <r>  -19.4799    1.0000 </r>
       <r>  -19.4472    1.0000 </r>
       <r>  -19.2137    1.0000 </r>
       <r>  -19.1960    1.0000 </r>
       <r>  -18.5571    1.0000 </r>
       <r>  -18.4289    1.0000 </r>
       <r>  -18.4169    1.0000 </r>
       <r>  -18.0711    1.0000 </r>
       <r>  -18.0372    1.0000 </r>
       <r>  -17.7646    1.0000 </r>
       <r>  -17.7448    1.0000 </r>
       <r>  -17.3981    1.0000 </r>
       <r>  -17.3827    1.0000 </r>
       <r>  -17.2454    1.0000 </r>
       <r>  -17.0165    1.0000 </r>
       <r>  -16.9694    1.0000 </r>
       <r>  -16.7735    1.0000 </r>
       <r>  -16.7526    1.0000 </r>
       <r>  -16.6581    1.0000 </r>
       <r>  -16.6435    1.0000 </r>
       <r>  -16.6183    1.0000 </r>
       <r>  -16.5857    1.0000 </r>
       <r>  -15.9114    1.0000 </r>
       <r>  -15.8775    1.0000 </r>
       <r>  -15.7821    1.0000 </r>
       <r>  -15.7647    1.0000 </r>
       <r>  -15.7045    1.0000 </r>
       <r>  -15.6750    1.0000 </r>
       <r>  -15.1823    1.0000 </r>
       <r>  -15.1208    1.0000 </r>
       <r>  -15.0766    1.0000 </r>
       <r>  -15.0484    1.0000 </r>
       <r>  -15.0226    1.0000 </r>
       <r>  -14.9928    1.0000 </r>
       <r>  -14.8954    1.0000 </r>
       <r>  -14.8305    1.0000 </r>
       <r>  -14.7917    1.0000 </r>
       <r>  -14.6293    1.0000 </r>
       <r>  -14.3324    1.0000 </r>
       <r>  -14.3047    1.0000 </r>
       <r>  -14.2782    1.0000 </r>
       <r>  -14.0281    1.0000 </r>
       <r>  -14.0035    1.0000 </r>
       <r>  -13.9481    1.0000 </r>
       <r>  -13.9167    1.0000 </r>
       <r>  -13.8873    1.0000 </r>
       <r>  -13.1535    1.0000 </r>
       <r>  -13.0835    1.0000 </r>
       <r>  -12.9759    1.0000 </r>
       <r>  -12.9460    1.0000 </r>
       <r>  -12.8522    1.0000 </r>
       <r>  -12.8387    1.0000 </r>
       <r>  -12.7424    1.0000 </r>
       <r>  -12.7152    1.0000 </r>
       <r>  -12.6931    1.0000 </r>
[...]
       <r>   -16.2512     0.0000   120.0000 </r>
       <r>   -16.1524     0.0000   120.0000 </r>
       <r>   -16.0536     0.0000   120.0000 </r>
       <r>   -15.9549     0.0000   120.0000 </r>
       <r>   -15.8561    35.6164   123.5173 </r>
       <r>   -15.7574    33.9165   127.3494 </r>
       <r>   -15.6586    40.4698   131.9966 </r>
       <r>   -15.5599     0.0000   132.0000 </r>
       <r>   -15.4611     0.0000   132.0000 </r>
       <r>   -15.3624     0.0000   132.0000 </r>
       <r>   -15.2636     0.0000   132.0000 </r>
       <r>   -15.1649    13.8526   133.3680 </r>
       <r>   -15.0661    39.1290   137.8642 </r>
       <r>   -14.9674    55.3129   143.9999 </r>
       <r>   -14.8686    20.2406   145.9988 </r>
       <r>   -14.7698    40.4964   149.9992 </r>
       <r>   -14.6711     0.0000   150.0000 </r>
       <r>   -14.5723     9.6547   150.9534 </r>
       <r>   -14.4736    10.9820   152.5180 </r>
       <r>   -14.3748     5.9364   153.5530 </r>
       <r>   -14.2761    11.4513   154.7977 </r>
       <r>   -14.1773    17.0665   156.9524 </r>
       <r>   -14.0786    25.5257   159.6548 </r>
       <r>   -13.9798    15.8618   161.9999 </r>
       <r>   -13.8811    44.1563   166.3607 </r>
       <r>   -13.7823     2.6899   168.0000 </r>
       <r>   -13.6835     0.0000   168.0000 </r>
       <r>   -13.5848     0.0000   168.0000 </r>
       <r>   -13.4860     0.0000   168.0000 </r>
       <r>   -13.3873     0.0000   168.0000 </r>
       <r>   -13.2885     0.0000   168.0000 </r>
       <r>   -13.1898     0.0000   168.0000 </r>
       <r>   -13.0910    21.2110   170.0947 </r>
       <r>   -12.9923    10.3224   172.8532 </r>
       <r>   -12.8935    20.2523   176.0000 </r>
       <r>   -12.7948    40.5046   180.0000 </r>
       <r>   -12.6960    43.1934   184.2655 </r>
       <r>   -12.5973    38.9169   189.8432 </r>
       <r>   -12.4985    48.0300   194.7432 </r>
       <r>   -12.3997    30.9735   199.0588 </r>
       <r>   -12.3010    33.0779   204.0005 </r>
       <r>   -12.2022    21.1819   206.0923 </r>
       <r>   -12.1035    30.2611   210.0887 </r>
       <r>   -12.0047    59.8769   217.9131 </r>
       <r>   -11.9060    12.5835   219.6427 </r>
       <r>   -11.8072    20.2459   222.0001 </r>
       <r>   -11.7085    63.5488   228.2759 </r>
       <r>   -11.6097    63.4480   235.9995 </r>
       <r>   -11.5110     1.3360   236.1319 </r>
       <r>   -11.4122    30.2015   239.6160 </r>
       <r>   -11.3134     0.0000   240.0000 </r>
       <r>   -11.2147     0.0000   240.0000 </r>
       <r>   -11.1159    38.5615   243.8081 </r>
       <r>   -11.0172    14.8481   246.0000 </r>
       <r>   -10.9184     0.0006   246.0001 </r>
       <r>   -10.8197    45.6424   250.5074 </r>
       <r>   -10.7209    29.4633   253.9107 </r>
       <r>   -10.6222    19.2591   256.1023 </r>
       <r>   -10.5234    40.7293   261.2561 </r>
       <r>   -10.4247    17.8763   264.0655 </r>
       <r>   -10.3259    39.9671   269.1471 </r>
       <r>   -10.2272    58.0678   275.2346 </r>
       <r>   -10.1284    41.5769   280.1060 </r>
       <r>   -10.0296    52.1834   286.9541 </r>
       <r>    -9.9309     0.0000   288.0000 </r>
       <r>    -9.8321     0.0000   288.0000 </r>
       <r>    -9.7334    39.0924   291.8605 </r>
       <r>    -9.6346    94.3630   301.3202 </r>
       <r>    -9.5359    64.4175   308.9289 </r>
       <r>    -9.4371    17.2113   311.9999 </r>
       <r>    -9.3384    46.8666   316.6283 </r>
       <r>    -9.2396     5.3981   318.0000 </r>
       <r>    -9.1409    30.7864   321.0403 </r>
       <r>    -9.0421    19.4514   323.1543 </r>
       <r>    -8.9433    27.7922   326.3114 </r>
       <r>    -8.8446    26.1471   329.7157 </r>
       <r>    -8.7458    41.0810   335.0906 </r>
       <r>    -8.6471     7.4251   336.0000 </r>
       <r>    -8.5483     0.0004   336.0000 </r>
       <r>    -8.4496    23.2789   338.2989 </r>
       <r>    -8.3508    28.0985   341.9085 </r>
       <r>    -8.2521    22.3596   344.7418 </r>
       <r>    -8.1533    22.6810   347.1732 </r>
       <r>    -8.0546     6.4148   348.0670 </r>
       <r>    -7.9558    47.6954   354.0115 </r>
       <r>    -7.8571    56.5657   359.8531 </r>
       <r>    -7.7583    43.4741   364.2932 </r>
       <r>    -7.6595    51.6126   369.8640 </r>
       <r>    -7.5608    32.1602   373.1760 </r>
       <r>    -7.4620    40.5045   378.0000 </r>
       <r>    -7.3633     2.7401   378.2706 </r>
       <r>    -7.2645    52.2481   383.9935 </r>
       <r>    -7.1658    56.3492   389.9996 </r>
       <r>    -7.0670     0.0000   390.0000 </r>
       <r>    -6.9683     0.0000   390.0000 </r>
       <r>    -6.8695    40.6949   394.0188 </r>
       <r>    -6.7708    29.2926   397.9262 </r>
       <r>    -6.6720    18.6120   400.0382 </r>
       <r>    -6.5732    39.8103   404.9318 </r>
       <r>    -6.4745    25.6457   408.0000 </r>
       <r>    -6.3757     0.0000   408.0000 </r>
       <r>    -6.2770    20.9182   410.0658 </r>
       <r>    -6.1782    25.3055   414.0000 </r>
       <r>    -6.0795     0.0001   414.0000 </r>
       <r>    -5.9807    40.4872   417.9983 </r>
       <r>    -5.8820    40.4764   421.9972 </r>
       <r>    -5.7832    44.8868   426.4328 </r>
       <r>    -5.6845    81.0000   437.9991 </r>
       <r>    -5.5857     0.0000   438.0000 </r>
       <r>    -5.4870     0.0000   438.0000 </r>
       <r>    -5.3882     6.4395   438.6359 </r>
       <r>    -5.2894    50.2858   444.9660 </r>
       <r>    -5.1907    20.2517   447.9999 </r>
       <r>    -5.0919    15.5089   450.0000 </r>
       <r>    -4.9932    30.4682   453.0089 </r>
       <r>    -4.8944    15.8900   455.4696 </r>
       <r>    -4.7957     0.0014   456.0001 </r>
       <r>    -4.6969    32.0944   459.1696 </r>
       <r>    -4.5982    20.8318   462.0572 </r>
       <r>    -4.4994    40.5046   468.0000 </r>
       <r>    -4.4007     0.0000   468.0000 </r>
       <r>    -4.3019     0.0000   468.0000 </r>
       <r>    -4.2031     0.0000   468.0000 </r>
       <r>    -4.1044     0.0000   468.0000 </r>
       <r>    -4.0056     0.0000   468.0000 </r>
       <r>    -3.9069     0.0420   468.0041 </r>
       <r>    -3.8081    40.0187   471.9562 </r>
       <r>    -3.7094    14.1662   474.0000 </r>
       <r>    -3.6106     0.0000   474.0000 </r>
       <r>    -3.5119     0.0000   474.0000 </r>
       <r>    -3.4131     0.0000   474.0000 </r>
       <r>    -3.3144     0.0000   474.0000 </r>
       <r>    -3.2156     0.0000   474.0000 </r>
       <r>    -3.1169     0.0000   474.0000 </r>
       <r>    -3.0181     0.0000   474.0000 </r>
       <r>    -2.9193     0.0000   474.0000 </r>
       <r>    -2.8206     0.0000   474.0000 </r>
       <r>    -2.7218     0.0000   474.0000 </r>
       <r>    -2.6231     0.0000   474.0000 </r>
       <r>    -2.5243     0.0000   474.0000 </r>
       <r>    -2.4256     0.0000   474.0000 </r>
       <r>    -2.3268     0.0000   474.0000 </r>
       <r>    -2.2281     0.0000   474.0000 </r>
       <r>    -2.1293     0.0000   474.0000 </r>
       <r>    -2.0306    16.0384   475.5839 </r>
       <r>    -1.9318    48.4644   481.9869 </r>
       <r>    -1.8330    40.4903   485.9986 </r>
       <r>    -1.7343     0.0000   486.0000 </r>
       <r>    -1.6355     0.0000   486.0000 </r>
       <r>    -1.5368     0.0016   486.0002 </r>
       <r>    -1.4380    81.0041   493.9996 </r>
       <r>    -1.3393     0.0216   494.0021 </r>
       <r>    -1.2405    40.4830   498.0000 </r>
       <r>    -1.1418     0.0000   498.0000 </r>
       <r>    -1.0430     0.0529   498.0052 </r>
       <r>    -0.9443    33.4195   501.3055 </r>
       <r>    -0.8455    19.7725   503.9526 </r>
       <r>    -0.7468     0.0000   504.0000 </r>
       <r>    -0.6480     0.0000   504.0000 </r>
       <r>    -0.5492     0.0000   504.0000 </r>
       <r>    -0.4505    45.1819   508.4619 </r>
       <r>    -0.3517    20.2523   512.0000 </r>
       <r>    -0.2530    40.5001   515.9996 </r>
       <r>    -0.1542     0.0000   516.0000 </r>
       <r>    -0.0555    40.5046   520.0000 </r>
       <r>     0.0433     3.9778   520.3928 </r>
       <r>     0.1420    47.4061   526.1150 </r>
       <r>     0.2408    23.8944   529.0266 </r>
       <r>     0.3395    26.5915   532.6260 </r>
       <r>     0.4383    24.7806   535.8139 </r>
       <r>     0.5371    24.0008   538.3705 </r>
       <r>     0.6358    40.9515   543.4783 </r>
       <r>     0.7346     5.9820   544.5907 </r>
       <r>     0.8333    39.6435   548.7485 </r>
       <r>     0.9321    45.5999   554.3703 </r>
       <r>     1.0308    48.5291   560.5261 </r>
       <r>     1.1296    45.4667   567.0240 </r>
       <r>     1.2283    54.2752   573.5269 </r>
       <r>     1.3271    62.1488   581.1379 </r>
       <r>     1.4258    59.0623   588.4662 </r>
       <r>     1.5246    65.0748   596.4601 </r>
       <r>     1.6233    74.4568   605.5208 </r>
       <r>     1.7221    68.2579   613.7082 </r>
       <r>     1.8209    79.5026   622.9193 </r>
       <r>     1.9196    63.2658   631.3148 </r>
       <r>     2.0184    47.5458   637.6622 </r>
       <r>     2.1171     9.1044   640.0000 </r>
       <r>     2.2159     0.0000   640.0000 </r>
       <r>     2.3146     0.0000   640.0000 </r>
       <r>     2.4134     0.0000   640.0000 </r>
       <r>     2.5121     0.0000   640.0000 </r>
       <r>     2.6109     0.0000   640.0000 </r>
       <r>     2.7096     0.0000   640.0000 </r>
       <r>     2.8084     0.0000   640.0000 </r>
       <r>     2.9071     0.0000   640.0000 </r>
       <r>     3.0059     0.0000   640.0000 </r>
       <r>     3.1047     0.0000   640.0000 </r>
       <r>     3.2034     0.0000   640.0000 </r>
       <r>     3.3022     0.0000   640.0000 </r>
       <r>     3.4009     0.0000   640.0000 </r>
      </set>
     </set>
    </array>
   </total>
  </dos>
 </calculation>
 <structure name="finalpos" >
  <crystal>
   <varray name="basis" >
    <v>      23.01715906       0.00907727       0.00000000 </v>
    <v>     -11.50051326      20.00867538       0.00000000 </v>
    <v>       0.00000000       0.00000000      20.00000000 </v>
   </varray>
   <i name="volume">   9212.94514079 </i>
   <varray name="rec_basis" >
    <v>       0.04343600       0.02496599       0.00000000 </v>
    <v>      -0.00001971       0.04996699       0.00000000 </v>
    <v>       0.00000000       0.00000000       0.05000000 </v>
   </varray>
  </crystal>
  <varray name="positions" >
   <v>       0.52123899       0.04115968       0.48408897 </v>
   <v>       0.48947242       0.07762214       0.50186238 </v>
   <v>       0.59322265       0.07938948       0.47865679 </v>
   <v>       0.52323962       0.14570098       0.51732947 </v>
   <v>       0.62818071       0.14573453       0.50227340 </v>
   <v>       0.51358456       0.92850588       0.48624434 </v>
   <v>       0.48047446       0.85897451       0.48507737 </v>
   <v>       0.40970626       0.82367959       0.48103396 </v>
   <v>       0.59375272       0.17935975       0.52210114 </v>
   <v>       0.41528460       0.48954959       0.49625266 </v>
   <v>       0.38007346       0.52366316       0.50526770 </v>
   <v>       0.41621121       0.59413369       0.50653230 </v>
   <v>       0.58826906       0.41642936       0.54131176 </v>
   <v>       0.62524456       0.48477131       0.52364263 </v>
   <v>       0.59029278       0.51604639       0.50095721 </v>
   <v>       0.07777696       0.59354952       0.49690404 </v>
   <v>       0.14515367       0.62870060       0.51595563 </v>
   <v>       0.17716503       0.59203787       0.53282616 </v>
   <v>       0.82259526       0.41609589       0.49723123 </v>
   <v>       0.85895353       0.38154945       0.49682478 </v>
   <v>       0.92848174       0.41828613       0.49238618 </v>
   <v>       0.49105904       0.18785147       0.52178340 </v>
   <v>       0.49068119       0.30519993       0.52218788 </v>
   <v>       0.48463464       0.21599957       0.58212285 </v>
   <v>       0.48033454       0.18510647       0.65005197 </v>
   <v>       0.69921802       0.51642590       0.51695344 </v>
   <v>       0.81618575       0.51841476       0.49598594 </v>
   <v>       0.74459040       0.52894109       0.57023202 </v>
   <v>       0.73162786       0.54201795       0.64144124 </v>
   <v>       0.81834856       0.30722228       0.49885773 </v>
   <v>       0.70243441       0.18885473       0.50028114 </v>
   <v>       0.79342900       0.27082443       0.55904868 </v>
   <v>       0.82620692       0.29616502       0.62654076 </v>
   <v>       0.51371025       0.81767929       0.48728490 </v>
   <v>       0.51641652       0.70178228       0.48770815 </v>
   <v>       0.52371835       0.79153576       0.54754986 </v>
   <v>       0.52873080       0.82224866       0.61578448 </v>
   <v>       0.30594284       0.49201028       0.51114432 </v>
   <v>       0.18889911       0.49318434       0.51529938 </v>
   <v>       0.27346525       0.48702578       0.57261337 </v>
   <v>       0.30236017       0.48451041       0.63988442 </v>
   <v>       0.18733096       0.70227086       0.50692039 </v>
   <v>       0.30147690       0.81866978       0.48323806 </v>
   <v>       0.22035725       0.74897247       0.55907214 </v>
   <v>       0.19449732       0.73765012       0.63029472 </v>
   <v>       0.48217163       0.96709714       0.47666273 </v>
   <v>       0.37570022       0.86013532       0.47521670 </v>
   <v>       0.41085857       0.93005025       0.46642395 </v>
   <v>       0.48444815       0.52077766       0.48239101 </v>
   <v>       0.48495944       0.62764795       0.48968084 </v>
   <v>       0.51763068       0.59198653       0.47211901 </v>
   <v>       0.52107674       0.48295361       0.48858985 </v>
   <v>       0.48831922       0.41104763       0.49020919 </v>
   <v>       0.52047337       0.37904071       0.52029439 </v>
   <v>       0.04060572       0.52408538       0.48669994 </v>
   <v>       0.14513701       0.52358499       0.51468714 </v>
   <v>       0.07980178       0.49098200       0.48748454 </v>
   <v>       0.96607003       0.48799954       0.48148969 </v>
   <v>       0.92714776       0.52082333       0.47398730 </v>
   <v>       0.85801587       0.48601199       0.48830872 </v>
   <v>       0.47717738       0.26646660       0.46340493 </v>
   <v>       0.78150704       0.52813961       0.44296860 </v>
   <v>       0.73809265       0.21597062       0.44040976 </v>
   <v>       0.52616121       0.73831078       0.42834444 </v>
   <v>       0.21227801       0.47895534       0.45562325 </v>
   <v>       0.25679404       0.78258451       0.43103633 </v>
   <v>       0.43523722       0.05167405       0.50682726 </v>
   <v>       0.60828588       0.01566226       0.41858604 </v>
   <v>       0.47262154       0.10012113       0.62223746 </v>
   <v>       0.67973482       0.08493044       0.44422570 </v>
   <v>       0.45199366       0.19981407       0.68347939 </v>
   <v>       0.56729877       0.95400879       0.49537116 </v>
   <v>       0.60478349       0.27070392       0.54893525 </v>
   <v>       0.39734794       0.72874729       0.47401363 </v>
   <v>       0.38714085       0.43573183       0.50349251 </v>
   <v>       0.61940915       0.57009875       0.49661635 </v>
   <v>       0.66576718       0.41348016       0.58857588 </v>
   <v>       0.33461050       0.60646160       0.52621603 </v>
   <v>       0.05307336       0.62308025       0.49386582 </v>
   <v>       0.95475567       0.39046794       0.49878399 </v>
   <v>       0.72741338       0.33295984       0.49716085 </v>
   <v>       0.26172033       0.67128539       0.57232552 </v>
   <v>       0.53166791       0.20710517       0.67106552 </v>
   <v>       0.71294406       0.49538534       0.67112958 </v>
   <v>       0.77994259       0.57830640       0.66372244 </v>
   <v>       0.64689533       0.54017967       0.62346286 </v>
   <v>       0.80846175       0.32918677       0.64725868 </v>
   <v>       0.80839893       0.25301854       0.66023718 </v>
   <v>       0.91431543       0.37150292       0.60324182 </v>
   <v>       0.47723528       0.80439136       0.63458130 </v>
   <v>       0.55244970       0.80282030       0.64984983 </v>
   <v>       0.54249207       0.91136321       0.59580009 </v>
   <v>       0.33347509       0.53641221       0.65851408 </v>
   <v>       0.26056200       0.45871244       0.67517796 </v>
   <v>       0.37839378       0.47414261       0.61239380 </v>
   <v>       0.21899757       0.71491308       0.65963769 </v>
   <v>       0.21028486       0.78670018       0.65289622 </v>
   <v>       0.10837893       0.65602107       0.61509897 </v>
   <v>       0.39683711       0.00368447       0.42507245 </v>
   <v>       0.32593715       0.92889238       0.43508413 </v>
   <v>       0.66839568       0.25852702       0.57209730 </v>
   <v>       0.32639902       0.73149160       0.46785317 </v>
   <v>       0.59798119       0.60444439       0.41614110 </v>
   <v>       0.59892810       0.67647617       0.43610977 </v>
   <v>       0.40554853       0.32193522       0.46355428 </v>
   <v>       0.40878124       0.39114296       0.42865932 </v>
   <v>       0.58850163       0.34814416       0.60422635 </v>
   <v>       0.40927189       0.67058092       0.54986143 </v>
   <v>       0.02024322       0.41055351       0.42735580 </v>
   <v>       0.08665434       0.40828750       0.46231988 </v>
   <v>       0.92126540       0.60253082       0.44547991 </v>
   <v>       0.99337427       0.60535314       0.42293178 </v>
   <v>       0.72875288       0.40582569       0.49243186 </v>
   <v>       0.24871514       0.59475404       0.59358060 </v>
   <v>       0.46908397       0.28353482       0.41509427 </v>
   <v>       0.79906143       0.53444766       0.39123595 </v>
   <v>       0.71910833       0.19207880       0.39187701 </v>
   <v>       0.53219136       0.72016341       0.37975994 </v>
   <v>       0.18581456       0.47091636       0.40809083 </v>
   <v>       0.26736502       0.79881808       0.37889511 </v>
   <v>       0.63061369       0.05246101       0.45309989 </v>
   <v>       0.37374843       0.75460081       0.48634833 </v>
   <v>       0.63096648       0.24707764       0.53861932 </v>
   <v>       0.38479231       0.63164292       0.51777877 </v>
   <v>       0.61879863       0.38356004       0.57066295 </v>
   <v>       0.24233980       0.62284516       0.55822225 </v>
   <v>       0.75399529       0.38263070       0.50786704 </v>
   <v>       0.48830688       0.27589221       0.58112787 </v>
   <v>       0.80008678       0.52553930       0.55891442 </v>
   <v>       0.73417073       0.21415204       0.55869873 </v>
   <v>       0.52138083       0.73238502       0.54650667 </v>
   <v>       0.21747197       0.49135247       0.57341683 </v>
   <v>       0.27889242       0.80399566       0.54651849 </v>
   <v>       0.37326788       0.96029832       0.45118218 </v>
   <v>       0.58279663       0.62816379       0.44837523 </v>
   <v>       0.42417150       0.37195761       0.46565127 </v>
   <v>       0.05442529       0.42611877       0.46475422 </v>
   <v>       0.95507604       0.58780126       0.45624495 </v>
   <v>       0.48077106       0.21057897       0.46344161 </v>
   <v>       0.72215706       0.52380262       0.45377966 </v>
   <v>       0.79343057       0.27605955       0.44019880 </v>
   <v>       0.52132400       0.79371921       0.42856679 </v>
   <v>       0.27162724       0.48195434       0.45372688 </v>
   <v>       0.20234528       0.72335403       0.44323129 </v>
   <v>       0.44709729       0.11415220       0.65030626 </v>
   <v>       0.68850736       0.56927518       0.64739191 </v>
   <v>       0.89746424       0.32871531       0.62604696 </v>
   <v>       0.56771152       0.89320400       0.61798213 </v>
   <v>       0.33867962       0.44958865       0.64036524 </v>
   <v>       0.12355387       0.69959544       0.63582295 </v>
  </varray>
 </structure>
</modeling>
