<?xml version="1.0" encoding="ISO-8859-1"?>
<modeling>
 <generator>
  <i name="program" type="string">vasp </i>
  <i name="version" type="string">5.4.4.18Apr17-6-g9f103f2a35  </i>
  <i name="subversion" type="string">(build Jun 07 2020 16:50:00) complex            parallel </i>
  <i name="platform" type="string">LinuxIFC </i>
  <i name="date" type="string">2023 02 14 </i>
  <i name="time" type="string">16:52:17 </i>
 </generator>
 <incar>
  <i type="string" name="SYSTEM">Simulation for cell shape cell volume r</i>
  <i type="int" name="ISTART">     1</i>
  <i type="string" name="PREC">high</i>
  <i type="string" name="ALGO">48</i>
  <i type="int" name="ICHARG">    11</i>
  <i type="int" name="NELM">   200</i>
  <i type="int" name="IBRION">    -1</i>
  <i name="EDIFF">      0.00001000</i>
  <i name="EDIFFG">     -0.01000000</i>
  <i type="int" name="NSW">     0</i>
  <i type="int" name="ISIF">     2</i>
  <i name="ENCUT">    500.00000000</i>
  <i name="POTIM">      0.30000000</i>
  <i type="string" name="LREAL">A</i>
  <i type="int" name="ISMEAR">     0</i>
  <i name="SIGMA">      0.01000000</i>
  <i type="int" name="NWRITE">     0</i>
  <i type="logical" name="LWAVE"> F  </i>
  <i type="logical" name="LCHARG"> F  </i>
  <v type="int" name="KPOINT_BSE">    -1     0     0     0</v>
  <i type="int" name="NELM">   200</i>
  <i type="string" name="GGA">PE</i>
 </incar>
 <structure name="primitive_cell" >
  <crystal>
   <varray name="basis" >
    <v>      36.72801074       0.00000000       0.00000000 </v>
    <v>     -18.36400537      31.80739033       0.00000000 </v>
    <v>       0.00000000       0.00000000      20.00000000 </v>
   </varray>
   <i name="volume">  23364.44347434 </i>
   <varray name="rec_basis" >
    <v>       0.02722718       0.01571962       0.00000000 </v>
    <v>       0.00000000       0.03143923       0.00000000 </v>
    <v>       0.00000000       0.00000000       0.05000000 </v>
   </varray>
  </crystal>
  <varray name="positions" >
   <v>       0.35399190      -0.29201620      -0.49687816 </v>
   <v>       0.37652719      -0.31173640      -0.49687975 </v>
   <v>       0.31173640      -0.31173640      -0.49687975 </v>
   <v>       0.37725308      -0.24549384      -0.49715134 </v>
   <v>       0.29201620      -0.35399190      -0.49687816 </v>
   <v>       0.35399190      -0.35399190      -0.49687816 </v>
   <v>       0.35548998      -0.22309534      -0.49737610 </v>
   <v>       0.42141468      -0.22309534      -0.49737610 </v>
   <v>       0.31173640      -0.37652719      -0.49687975 </v>
   <v>       0.43816888      -0.24059107      -0.49701507 </v>
   <v>       0.32124005      -0.24059107      -0.49701507 </v>
   <v>       0.37725308      -0.37725308      -0.49715134 </v>
   <v>       0.24549384      -0.37725308      -0.49715134 </v>
   <v>       0.43816888      -0.32124005      -0.49701507 </v>
   <v>       0.24059107      -0.32124005      -0.49701507 </v>
   <v>       0.44325633      -0.17932921      -0.49823244 </v>
   <v>       0.37741446      -0.17932921      -0.49823244 </v>
   <v>       0.22309534      -0.35548998      -0.49737610 </v>
   <v>       0.42141468      -0.35548998      -0.49737610 </v>
   <v>       0.42157087      -0.15685826      -0.49897011 </v>
   <v>       0.47756682      -0.16211532      -0.49854683 </v>
   <v>       0.36031785      -0.16211532      -0.49854683 </v>
   <v>       0.22309534      -0.42141468      -0.49737610 </v>
   <v>       0.35548998      -0.42141468      -0.49737610 </v>
   <v>       0.32124005      -0.43816888      -0.49701507 </v>
   <v>       0.24059107      -0.43816888      -0.49701507 </v>
   <v>       0.44325633      -0.37741446      -0.49823244 </v>
   <v>       0.17932921      -0.37741446      -0.49823244 </v>
   <v>       0.44491082      -0.11017836       0.49909788 </v>
   <v>       0.37741446      -0.44325633      -0.49823244 </v>
   <v>       0.17932921      -0.44325633      -0.49823244 </v>
   <v>       0.47756682      -0.36031785      -0.49854683 </v>
   <v>       0.16211532      -0.36031785      -0.49854683 </v>
   <v>       0.44740524      -0.10518951       0.39123826 </v>
   <v>       0.42157087      -0.42157087      -0.49897011 </v>
   <v>       0.15685826      -0.42157087      -0.49897011 </v>
   <v>       0.44888234      -0.10223532      -0.39335693 </v>
   <v>       0.45598888      -0.08802225       0.43850529 </v>
   <v>       0.45686639      -0.08626723      -0.44182258 </v>
   <v>       0.36031785      -0.47756682      -0.49854683 </v>
   <v>       0.16211532      -0.47756682      -0.49854683 </v>
   <v>       0.44491082      -0.44491082       0.49909788 </v>
   <v>       0.11017836      -0.44491082       0.49909788 </v>
   <v>       0.47785840      -0.04428319      -0.44022025 </v>
   <v>       0.47784279      -0.04431442       0.43930587 </v>
   <v>       0.44740524      -0.44740524       0.39123826 </v>
   <v>       0.10518951      -0.44740524       0.39123826 </v>
   <v>       0.44888234      -0.44888234      -0.39335693 </v>
   <v>       0.10223532      -0.44888234      -0.39335693 </v>
   <v>       0.48831452      -0.02337095      -0.49887203 </v>
   <v>       0.45598888      -0.45598888       0.43850529 </v>
   <v>       0.08802225      -0.45598888       0.43850529 </v>
   <v>       0.45686639      -0.45686639      -0.44182258 </v>
   <v>       0.08626723      -0.45686639      -0.44182258 </v>
   <v>       0.48707401      -0.02585198       0.39344901 </v>
   <v>       0.47785840      -0.47785840      -0.44022025 </v>
   <v>       0.04428319      -0.47785840      -0.44022025 </v>
   <v>       0.47784279      -0.47784279       0.43930587 </v>
   <v>       0.04431442      -0.47784279       0.43930587 </v>
   <v>      -0.48834055       0.02331890      -0.49571194 </v>
   <v>      -0.48697512       0.02604977      -0.38805822 </v>
   <v>       0.02337095      -0.48831452      -0.49887203 </v>
   <v>       0.48831452      -0.48831452      -0.49887203 </v>
   <v>       0.02585198      -0.48707401       0.39344901 </v>
   <v>       0.48707401      -0.48707401       0.39344901 </v>
   <v>      -0.47792816       0.04414368       0.44558808 </v>
   <v>      -0.47780180       0.04439640      -0.43403106 </v>
   <v>      -0.02331890       0.48834055      -0.49571194 </v>
   <v>      -0.48834055       0.48834055      -0.49571194 </v>
   <v>      -0.45694202       0.08611596       0.44685857 </v>
   <v>      -0.45594125       0.08811750      -0.43351655 </v>
   <v>      -0.48697512       0.48697512      -0.38805822 </v>
   <v>      -0.02604977       0.48697512      -0.38805822 </v>
   <v>      -0.44903448       0.10193104       0.39826868 </v>
   <v>      -0.47792816       0.47792816       0.44558808 </v>
   <v>      -0.04414368       0.47792816       0.44558808 </v>
   <v>      -0.04439640       0.47780180      -0.43403106 </v>
   <v>      -0.47780180       0.47780180      -0.43403106 </v>
   <v>      -0.44491813       0.11016373      -0.49421729 </v>
   <v>      -0.44730531       0.10538938      -0.38635310 </v>
   <v>      -0.45694202       0.45694202       0.44685857 </v>
   <v>      -0.08611596       0.45694202       0.44685857 </v>
   <v>      -0.45594125       0.45594125      -0.43351655 </v>
   <v>      -0.08811750       0.45594125      -0.43351655 </v>
   <v>      -0.42157845       0.15684310      -0.49648929 </v>
   <v>      -0.36031499       0.16212025      -0.49690658 </v>
   <v>      -0.47756476       0.16212025      -0.49690658 </v>
   <v>      -0.44903448       0.44903448       0.39826868 </v>
   <v>      -0.10193104       0.44903448       0.39826868 </v>
   <v>      -0.44491813       0.44491813      -0.49421729 </v>
   <v>      -0.11016373       0.44491813      -0.49421729 </v>
   <v>      -0.44730531       0.44730531      -0.38635310 </v>
   <v>      -0.10538938       0.44730531      -0.38635310 </v>
   <v>      -0.37742361       0.17931780      -0.49742957 </v>
   <v>      -0.44325859       0.17931780      -0.49742957 </v>
   <v>      -0.15684310       0.42157845      -0.49648929 </v>
   <v>      -0.42157845       0.42157845      -0.49648929 </v>
   <v>      -0.42142030       0.22307958      -0.49876573 </v>
   <v>      -0.35550012       0.22307958      -0.49876573 </v>
   <v>      -0.36031499       0.47756476      -0.49690658 </v>
   <v>      -0.16212025       0.47756476      -0.49690658 </v>
   <v>      -0.47756476       0.36031499      -0.49690658 </v>
   <v>      -0.16212025       0.36031499      -0.49690658 </v>
   <v>      -0.37742361       0.44325859      -0.49742957 </v>
   <v>      -0.17931780       0.44325859      -0.49742957 </v>
   <v>      -0.32124955       0.24057286      -0.49925265 </v>
   <v>      -0.43817759       0.24057286      -0.49925265 </v>
   <v>      -0.37725729       0.24548542      -0.49927807 </v>
   <v>      -0.44325859       0.37742361      -0.49742957 </v>
   <v>      -0.17931780       0.37742361      -0.49742957 </v>
   <v>      -0.22307958       0.42142030      -0.49876573 </v>
   <v>      -0.35550012       0.42142030      -0.49876573 </v>
   <v>      -0.22307958       0.35550012      -0.49876573 </v>
   <v>      -0.42142030       0.35550012      -0.49876573 </v>
   <v>      -0.35399329       0.29201341      -0.49986044 </v>
   <v>      -0.32124955       0.43817759      -0.49925265 </v>
   <v>      -0.24057286       0.43817759      -0.49925265 </v>
   <v>      -0.24548542       0.37725729      -0.49927807 </v>
   <v>      -0.37725729       0.37725729      -0.49927807 </v>
   <v>      -0.43817759       0.32124955      -0.49925265 </v>
   <v>      -0.24057286       0.32124955      -0.49925265 </v>
   <v>      -0.31173089       0.31173089      -0.49990926 </v>
   <v>      -0.37653822       0.31173089      -0.49990926 </v>
   <v>      -0.35399329       0.35399329      -0.49986044 </v>
   <v>      -0.29201341       0.35399329      -0.49986044 </v>
   <v>      -0.31173089       0.37653822      -0.49990926 </v>
  </varray>
 </structure>
 <varray name="primitive_index" >
  <v type="int" >        1 </v>
  <v type="int" >       73 </v>
  <v type="int" >       75 </v>
  <v type="int" >       10 </v>
  <v type="int" >        3 </v>
  <v type="int" >        2 </v>
  <v type="int" >       15 </v>
  <v type="int" >       11 </v>
  <v type="int" >       74 </v>
  <v type="int" >       86 </v>
  <v type="int" >       88 </v>
  <v type="int" >        4 </v>
  <v type="int" >       16 </v>
  <v type="int" >       96 </v>
  <v type="int" >       89 </v>
  <v type="int" >       12 </v>
  <v type="int" >       14 </v>
  <v type="int" >       17 </v>
  <v type="int" >        5 </v>
  <v type="int" >       13 </v>
  <v type="int" >       85 </v>
  <v type="int" >       87 </v>
  <v type="int" >       21 </v>
  <v type="int" >        9 </v>
  <v type="int" >       93 </v>
  <v type="int" >       91 </v>
  <v type="int" >        6 </v>
  <v type="int" >       18 </v>
  <v type="int" >       63 </v>
  <v type="int" >        8 </v>
  <v type="int" >       20 </v>
  <v type="int" >       95 </v>
  <v type="int" >       90 </v>
  <v type="int" >      122 </v>
  <v type="int" >        7 </v>
  <v type="int" >       19 </v>
  <v type="int" >      114 </v>
  <v type="int" >       64 </v>
  <v type="int" >       48 </v>
  <v type="int" >       94 </v>
  <v type="int" >       92 </v>
  <v type="int" >       58 </v>
  <v type="int" >       68 </v>
  <v type="int" >       80 </v>
  <v type="int" >       65 </v>
  <v type="int" >      119 </v>
  <v type="int" >      125 </v>
  <v type="int" >      111 </v>
  <v type="int" >      117 </v>
  <v type="int" >       66 </v>
  <v type="int" >       59 </v>
  <v type="int" >       69 </v>
  <v type="int" >       43 </v>
  <v type="int" >       53 </v>
  <v type="int" >      123 </v>
  <v type="int" >       79 </v>
  <v type="int" >       81 </v>
  <v type="int" >       60 </v>
  <v type="int" >       70 </v>
  <v type="int" >       49 </v>
  <v type="int" >      112 </v>
  <v type="int" >       71 </v>
  <v type="int" >       61 </v>
  <v type="int" >      126 </v>
  <v type="int" >      120 </v>
  <v type="int" >       83 </v>
  <v type="int" >       50 </v>
  <v type="int" >       54 </v>
  <v type="int" >       44 </v>
  <v type="int" >       67 </v>
  <v type="int" >       51 </v>
  <v type="int" >      109 </v>
  <v type="int" >      115 </v>
  <v type="int" >      121 </v>
  <v type="int" >       82 </v>
  <v type="int" >       84 </v>
  <v type="int" >       55 </v>
  <v type="int" >       45 </v>
  <v type="int" >       52 </v>
  <v type="int" >      113 </v>
  <v type="int" >       62 </v>
  <v type="int" >       72 </v>
  <v type="int" >       46 </v>
  <v type="int" >       56 </v>
  <v type="int" >       34 </v>
  <v type="int" >       99 </v>
  <v type="int" >       97 </v>
  <v type="int" >      118 </v>
  <v type="int" >      124 </v>
  <v type="int" >       47 </v>
  <v type="int" >       57 </v>
  <v type="int" >      110 </v>
  <v type="int" >      116 </v>
  <v type="int" >       35 </v>
  <v type="int" >       33 </v>
  <v type="int" >       40 </v>
  <v type="int" >       28 </v>
  <v type="int" >       32 </v>
  <v type="int" >       36 </v>
  <v type="int" >      106 </v>
  <v type="int" >      104 </v>
  <v type="int" >      107 </v>
  <v type="int" >      102 </v>
  <v type="int" >       29 </v>
  <v type="int" >       41 </v>
  <v type="int" >      100 </v>
  <v type="int" >       98 </v>
  <v type="int" >       31 </v>
  <v type="int" >       27 </v>
  <v type="int" >       39 </v>
  <v type="int" >       42 </v>
  <v type="int" >       30 </v>
  <v type="int" >       38 </v>
  <v type="int" >       26 </v>
  <v type="int" >       22 </v>
  <v type="int" >      105 </v>
  <v type="int" >      103 </v>
  <v type="int" >       37 </v>
  <v type="int" >       25 </v>
  <v type="int" >      108 </v>
  <v type="int" >      101 </v>
  <v type="int" >       78 </v>
  <v type="int" >       76 </v>
  <v type="int" >       23 </v>
  <v type="int" >       24 </v>
  <v type="int" >       77 </v>
 </varray>
 <kpoints>
  <generation param="listgenerated">
   <i name="divisions" type="int">      20 </i>
   <v>       0.00000000       0.00000000       0.00000000 </v>
   <v>       0.50000000       0.00000000       0.00000000 </v>
   <v>       0.33333333       0.33333333       0.00000000 </v>
   <v>       0.00000000       0.00000000       0.00000000 </v>
  </generation>
  <varray name="kpointlist" >
   <v>       0.00000000       0.00000000       0.00000000 </v>
   <v>       0.02631579       0.00000000       0.00000000 </v>
   <v>       0.05263158       0.00000000       0.00000000 </v>
   <v>       0.07894737       0.00000000       0.00000000 </v>
   <v>       0.10526316       0.00000000       0.00000000 </v>
   <v>       0.13157895       0.00000000       0.00000000 </v>
   <v>       0.15789474       0.00000000       0.00000000 </v>
   <v>       0.18421053       0.00000000       0.00000000 </v>
   <v>       0.21052632       0.00000000       0.00000000 </v>
   <v>       0.23684211       0.00000000       0.00000000 </v>
   <v>       0.26315789       0.00000000       0.00000000 </v>
   <v>       0.28947368       0.00000000       0.00000000 </v>
   <v>       0.31578947       0.00000000       0.00000000 </v>
   <v>       0.34210526       0.00000000       0.00000000 </v>
   <v>       0.36842105       0.00000000       0.00000000 </v>
   <v>       0.39473684       0.00000000       0.00000000 </v>
   <v>       0.42105263       0.00000000       0.00000000 </v>
   <v>       0.44736842       0.00000000       0.00000000 </v>
   <v>       0.47368421       0.00000000       0.00000000 </v>
   <v>       0.50000000       0.00000000       0.00000000 </v>
   <v>       0.50000000       0.00000000       0.00000000 </v>
   <v>       0.49122807       0.01754386       0.00000000 </v>
   <v>       0.48245614       0.03508772       0.00000000 </v>
   <v>       0.47368421       0.05263158       0.00000000 </v>
   <v>       0.46491228       0.07017544       0.00000000 </v>
   <v>       0.45614035       0.08771930       0.00000000 </v>
   <v>       0.44736842       0.10526316       0.00000000 </v>
   <v>       0.43859649       0.12280702       0.00000000 </v>
   <v>       0.42982456       0.14035088       0.00000000 </v>
   <v>       0.42105263       0.15789474       0.00000000 </v>
   <v>       0.41228070       0.17543860       0.00000000 </v>
   <v>       0.40350877       0.19298246       0.00000000 </v>
   <v>       0.39473684       0.21052632       0.00000000 </v>
   <v>       0.38596491       0.22807018       0.00000000 </v>
   <v>       0.37719298       0.24561404       0.00000000 </v>
   <v>       0.36842105       0.26315789       0.00000000 </v>
   <v>       0.35964912       0.28070175       0.00000000 </v>
   <v>       0.35087719       0.29824561       0.00000000 </v>
   <v>       0.34210526       0.31578947       0.00000000 </v>
   <v>       0.33333333       0.33333333       0.00000000 </v>
   <v>       0.33333333       0.33333333       0.00000000 </v>
   <v>       0.31578947       0.31578947       0.00000000 </v>
   <v>       0.29824561       0.29824561       0.00000000 </v>
   <v>       0.28070175       0.28070175       0.00000000 </v>
   <v>       0.26315789       0.26315789       0.00000000 </v>
   <v>       0.24561404       0.24561404       0.00000000 </v>
   <v>       0.22807018       0.22807018       0.00000000 </v>
   <v>       0.21052632       0.21052632       0.00000000 </v>
   <v>       0.19298246       0.19298246       0.00000000 </v>
   <v>       0.17543860       0.17543860       0.00000000 </v>
   <v>       0.15789474       0.15789474       0.00000000 </v>
   <v>       0.14035088       0.14035088       0.00000000 </v>
   <v>       0.12280702       0.12280702       0.00000000 </v>
   <v>       0.10526316       0.10526316       0.00000000 </v>
   <v>       0.08771930       0.08771930       0.00000000 </v>
   <v>       0.07017544       0.07017544       0.00000000 </v>
   <v>       0.05263158       0.05263158       0.00000000 </v>
   <v>       0.03508772       0.03508772       0.00000000 </v>
   <v>       0.01754386       0.01754386       0.00000000 </v>
   <v>       0.00000000       0.00000000       0.00000000 </v>
  </varray>
  <varray name="weights" >
   <v>       0.01666667 </v>
   <v>       0.01666667 </v>
   <v>       0.01666667 </v>
   <v>       0.01666667 </v>
   <v>       0.01666667 </v>
   <v>       0.01666667 </v>
   <v>       0.01666667 </v>
   <v>       0.01666667 </v>
   <v>       0.01666667 </v>
   <v>       0.01666667 </v>
   <v>       0.01666667 </v>
   <v>       0.01666667 </v>
   <v>       0.01666667 </v>
   <v>       0.01666667 </v>
   <v>       0.01666667 </v>
   <v>       0.01666667 </v>
   <v>       0.01666667 </v>
   <v>       0.01666667 </v>
   <v>       0.01666667 </v>
   <v>       0.01666667 </v>
   <v>       0.01666667 </v>
   <v>       0.01666667 </v>
   <v>       0.01666667 </v>
   <v>       0.01666667 </v>
   <v>       0.01666667 </v>
   <v>       0.01666667 </v>
   <v>       0.01666667 </v>
   <v>       0.01666667 </v>
   <v>       0.01666667 </v>
   <v>       0.01666667 </v>
   <v>       0.01666667 </v>
   <v>       0.01666667 </v>
   <v>       0.01666667 </v>
   <v>       0.01666667 </v>
   <v>       0.01666667 </v>
   <v>       0.01666667 </v>
   <v>       0.01666667 </v>
   <v>       0.01666667 </v>
   <v>       0.01666667 </v>
   <v>       0.01666667 </v>
   <v>       0.01666667 </v>
   <v>       0.01666667 </v>
   <v>       0.01666667 </v>
   <v>       0.01666667 </v>
   <v>       0.01666667 </v>
   <v>       0.01666667 </v>
   <v>       0.01666667 </v>
   <v>       0.01666667 </v>
   <v>       0.01666667 </v>
   <v>       0.01666667 </v>
   <v>       0.01666667 </v>
   <v>       0.01666667 </v>
   <v>       0.01666667 </v>
   <v>       0.01666667 </v>
   <v>       0.01666667 </v>
   <v>       0.01666667 </v>
   <v>       0.01666667 </v>
   <v>       0.01666667 </v>
   <v>       0.01666667 </v>
   <v>       0.01666667 </v>
  </varray>
 </kpoints>
 <parameters>
  <separator name="general" >
   <i type="string" name="SYSTEM">Simulation for cell shape cell volume r</i>
   <i type="logical" name="LCOMPAT"> F  </i>
  </separator>
  <separator name="electronic" >
   <i type="string" name="PREC">high</i>
   <i name="ENMAX">    500.00000000</i>
   <i name="ENAUG">    644.87300000</i>
   <i name="EDIFF">      0.00001000</i>
   <i type="int" name="IALGO">    38</i>
   <i type="int" name="IWAVPR">    10</i>
   <i type="int" name="NBANDS">   272</i>
   <i name="NELECT">    390.00000000</i>
   <i type="int" name="TURBO">     0</i>
   <i type="int" name="IRESTART">     0</i>
   <i type="int" name="NREBOOT">     0</i>
   <i type="int" name="NMIN">     0</i>
   <i name="EREF">      0.00000000</i>
   <separator name="electronic smearing" >
    <i type="int" name="ISMEAR">     0</i>
    <i name="SIGMA">      0.01000000</i>
    <i name="KSPACING">      0.50000000</i>
    <i type="logical" name="KGAMMA"> T  </i>
   </separator>
   <separator name="electronic projectors" >
    <i type="logical" name="LREAL"> T  </i>
    <v name="ROPT">     -0.00040000     -0.00040000     -0.00040000</v>
    <i type="int" name="LMAXPAW">  -100</i>
    <i type="int" name="LMAXMIX">     2</i>
    <i type="logical" name="NLSPLINE"> F  </i>
   </separator>
   <separator name="electronic startup" >
    <i type="int" name="ISTART">     1</i>
    <i type="int" name="ICHARG">    11</i>
    <i type="int" name="INIWAV">     1</i>
   </separator>
   <separator name="electronic spin" >
    <i type="int" name="ISPIN">     1</i>
    <i type="logical" name="LNONCOLLINEAR"> F  </i>
    <v name="MAGMOM">      1.00000000      1.00000000      1.00000000      1.00000000      1.00000000      1.00000000      1.00000000      1.00000000      1.00000000      1.00000000      1.00000000      1.00000000      1.00000000      1.00000000      1.00000000      1.00000000      1.00000000      1.00000000      1.00000000      1.00000000
      1.00000000      1.00000000      1.00000000      1.00000000      1.00000000      1.00000000      1.00000000      1.00000000      1.00000000      1.00000000      1.00000000      1.00000000      1.00000000      1.00000000      1.00000000      1.00000000      1.00000000      1.00000000      1.00000000      1.00000000
      1.00000000      1.00000000      1.00000000      1.00000000      1.00000000      1.00000000      1.00000000      1.00000000      1.00000000      1.00000000      1.00000000      1.00000000      1.00000000      1.00000000      1.00000000      1.00000000      1.00000000      1.00000000      1.00000000      1.00000000
      1.00000000      1.00000000      1.00000000      1.00000000      1.00000000      1.00000000      1.00000000      1.00000000      1.00000000      1.00000000      1.00000000      1.00000000      1.00000000      1.00000000      1.00000000      1.00000000      1.00000000      1.00000000      1.00000000      1.00000000
      1.00000000      1.00000000      1.00000000      1.00000000      1.00000000      1.00000000      1.00000000      1.00000000      1.00000000      1.00000000      1.00000000      1.00000000      1.00000000      1.00000000      1.00000000      1.00000000      1.00000000      1.00000000      1.00000000      1.00000000
      1.00000000      1.00000000      1.00000000      1.00000000      1.00000000      1.00000000      1.00000000      1.00000000      1.00000000      1.00000000      1.00000000      1.00000000      1.00000000      1.00000000      1.00000000      1.00000000      1.00000000      1.00000000      1.00000000      1.00000000
      1.00000000      1.00000000      1.00000000      1.00000000      1.00000000      1.00000000</v>
    <i name="NUPDOWN">     -1.00000000</i>
    <i type="logical" name="LSORBIT"> F  </i>
    <v name="SAXIS">      0.00000000      0.00000000      1.00000000</v>
    <i type="logical" name="LSPIRAL"> F  </i>
    <v name="QSPIRAL">      0.00000000      0.00000000      0.00000000</v>
    <i type="logical" name="LZEROZ"> F  </i>
   </separator>
   <separator name="electronic exchange-correlation" >
    <i type="logical" name="LASPH"> F  </i>
    <i type="logical" name="LMETAGGA"> F  </i>
   </separator>
   <separator name="electronic convergence" >
    <i type="int" name="NELM">   200</i>
    <i type="int" name="NELMDL">     0</i>
    <i type="int" name="NELMIN">     2</i>
    <i name="ENINI">    500.00000000</i>
    <separator name="electronic convergence detail" >
     <i type="logical" name="LDIAG"> T  </i>
     <i type="logical" name="LSUBROT"> F  </i>
     <i name="WEIMIN">      0.00000000</i>
     <i name="EBREAK">      0.00000001</i>
     <i name="DEPER">      0.30000000</i>
     <i type="int" name="NRMM">     4</i>
     <i name="TIME">      0.40000000</i>
    </separator>
   </separator>
   <separator name="electronic mixer" >
    <i name="AMIX">      0.40000000</i>
    <i name="BMIX">      1.00000000</i>
    <i name="AMIN">      0.10000000</i>
    <i name="AMIX_MAG">      1.60000000</i>
    <i name="BMIX_MAG">      1.00000000</i>
    <separator name="electronic mixer details" >
     <i type="int" name="IMIX">     4</i>
     <i type="logical" name="MIXFIRST"> F  </i>
     <i type="int" name="MAXMIX">   -45</i>
     <i name="WC">    100.00000000</i>
     <i type="int" name="INIMIX">     1</i>
     <i type="int" name="MIXPRE">     1</i>
     <i type="int" name="MREMOVE">     5</i>
    </separator>
   </separator>
   <separator name="electronic dipolcorrection" >
    <i type="logical" name="LDIPOL"> F  </i>
    <i type="logical" name="LMONO"> F  </i>
    <i type="int" name="IDIPOL">     0</i>
    <i name="EPSILON">      1.00000000</i>
    <v name="DIPOL">   -100.00000000   -100.00000000   -100.00000000</v>
    <i name="EFIELD">      0.00000000</i>
   </separator>
  </separator>
  <separator name="grids" >
   <i type="int" name="NGX">   270</i>
   <i type="int" name="NGY">   270</i>
   <i type="int" name="NGZ">   150</i>
   <i type="int" name="NGXF">   420</i>
   <i type="int" name="NGYF">   420</i>
   <i type="int" name="NGZF">   224</i>
   <i type="logical" name="ADDGRID"> F  </i>
  </separator>
  <separator name="ionic" >
   <i type="int" name="NSW">     0</i>
   <i type="int" name="IBRION">    -1</i>
   <i type="int" name="MDALGO">     0</i>
   <i type="int" name="ISIF">     2</i>
   <i name="PSTRESS">      0.00000000</i>
   <i name="EDIFFG">     -0.01000000</i>
   <i type="int" name="NFREE">     0</i>
   <i name="POTIM">      0.30000000</i>
   <i name="SMASS">     -3.00000000</i>
   <i name="SCALEE">      1.00000000</i>
  </separator>
  <separator name="ionic md" >
   <i name="TEBEG">      0.00010000</i>
   <i name="TEEND">      0.00010000</i>
   <i type="int" name="NBLOCK">     1</i>
   <i type="int" name="KBLOCK">     1</i>
   <i type="int" name="NPACO">   256</i>
   <i name="APACO">     16.00000000</i>
  </separator>
  <separator name="symmetry" >
   <i type="int" name="ISYM">     2</i>
   <i name="SYMPREC">      0.00001000</i>
  </separator>
  <separator name="dos" >
   <i type="int" name="LORBIT">     0</i>
   <v name="RWIGS">     -1.00000000     -1.00000000     -1.00000000</v>
   <i type="int" name="NEDOS">   301</i>
   <i name="EMIN">     10.00000000</i>
   <i name="EMAX">    -10.00000000</i>
   <i name="EFERMI">      0.00000000</i>
  </separator>
  <separator name="writing" >
   <i type="int" name="NWRITE">     0</i>
   <i type="logical" name="LWAVE"> F  </i>
   <i type="logical" name="LDOWNSAMPLE"> F  </i>
   <i type="logical" name="LCHARG"> F  </i>
   <i type="logical" name="LPARD"> F  </i>
   <i type="logical" name="LVTOT"> F  </i>
   <i type="logical" name="LVHAR"> F  </i>
   <i type="logical" name="LELF"> F  </i>
   <i type="logical" name="LOPTICS"> F  </i>
   <v name="STM">      0.00000000      0.00000000      0.00000000      0.00000000      0.00000000      0.00000000      0.00000000</v>
  </separator>
  <separator name="performance" >
   <i type="int" name="NPAR">    16</i>
   <i type="int" name="NSIM">     4</i>
   <i type="int" name="NBLK">    -1</i>
   <i type="logical" name="LPLANE"> T  </i>
   <i type="logical" name="LSCALAPACK"> T  </i>
   <i type="logical" name="LSCAAWARE"> F  </i>
   <i type="logical" name="LSCALU"> F  </i>
   <i type="logical" name="LASYNC"> F  </i>
   <i type="logical" name="LORBITALREAL"> F  </i>
  </separator>
  <separator name="miscellaneous" >
   <i type="int" name="IDIOT">     3</i>
   <i type="int" name="ISPECIAL">     0</i>
   <i type="logical" name="LMUSIC"> F  </i>
   <v name="POMASS">     12.01100000     14.00100000      1.00000000</v>
   <v name="DARWINR">      0.00000000      0.00000000      0.00000000</v>
   <v name="DARWINV">      1.00000000      1.00000000      1.00000000</v>
   <i type="logical" name="LCORR"> T  </i>
  </separator>
  <i type="logical" name="GGA_COMPAT"> T  </i>
  <i type="logical" name="LBERRY"> F  </i>
  <i type="int" name="ICORELEVEL">     0</i>
  <i type="logical" name="LDAU"> F  </i>
  <i type="int" name="I_CONSTRAINED_M">     0</i>
  <separator name="electronic exchange-correlation" >
   <i type="string" name="GGA">PE</i>
   <i type="int" name="VOSKOWN">     0</i>
   <i type="logical" name="LHFCALC"> F  </i>
   <i type="string" name="PRECFOCK"></i>
   <i type="logical" name="LSYMGRAD"> F  </i>
   <i type="logical" name="LHFONE"> F  </i>
   <i type="logical" name="LRHFCALC"> F  </i>
   <i type="logical" name="LTHOMAS"> F  </i>
   <i type="logical" name="LMODELHF"> F  </i>
   <i name="ENCUT4O">     -1.00000000</i>
   <i type="int" name="EXXOEP">     0</i>
   <i type="int" name="FOURORBIT">     0</i>
   <i name="AEXX">      0.00000000</i>
   <i name="HFALPHA">      0.00000000</i>
   <i name="MCALPHA">      0.00000000</i>
   <i name="ALDAX">      1.00000000</i>
   <i name="AGGAX">      1.00000000</i>
   <i name="ALDAC">      1.00000000</i>
   <i name="AGGAC">      1.00000000</i>
   <i type="int" name="NKREDX">     1</i>
   <i type="int" name="NKREDY">     1</i>
   <i type="int" name="NKREDZ">     1</i>
   <i type="logical" name="SHIFTRED"> F  </i>
   <i type="logical" name="ODDONLY"> F  </i>
   <i type="logical" name="EVENONLY"> F  </i>
   <i type="int" name="LMAXFOCK">     0</i>
   <i type="int" name="NMAXFOCKAE">     0</i>
   <i type="logical" name="LFOCKAEDFT"> F  </i>
   <i name="HFSCREEN">      0.00000000</i>
   <i name="HFSCREENC">      0.00000000</i>
   <i type="int" name="NBANDSGWLOW">     0</i>
  </separator>
  <separator name="vdW DFT" >
   <i type="logical" name="LUSE_VDW"> F  </i>
   <i name="Zab_VDW">     -0.84910000</i>
   <i name="PARAM1">      0.12340000</i>
   <i name="PARAM2">      1.00000000</i>
   <i name="PARAM3">      0.00000000</i>
  </separator>
  <separator name="model GW" >
   <i type="int" name="MODEL_GW">     0</i>
   <i name="MODEL_EPS0">    111.25925464</i>
   <i name="MODEL_ALPHA">      1.00000000</i>
  </separator>
  <separator name="linear response parameters" >
   <i type="logical" name="LEPSILON"> F  </i>
   <i type="logical" name="LRPA"> F  </i>
   <i type="logical" name="LNABLA"> F  </i>
   <i type="logical" name="LVEL"> F  </i>
   <i type="int" name="KINTER">     0</i>
   <i name="CSHIFT">      0.10000000</i>
   <i name="OMEGAMAX">     -1.00000000</i>
   <i name="DEG_THRESHOLD">      0.00200000</i>
   <i name="RTIME">     -0.10000000</i>
   <i name="WPLASMAI">      0.00000000</i>
   <v name="DFIELD">      0.00000000      0.00000000      0.00000000</v>
   <v name="WPLASMA">      0.00000000      0.00000000      0.00000000      0.00000000      0.00000000      0.00000000      0.00000000      0.00000000      0.00000000</v>
  </separator>
  <separator name="orbital magnetization" >
   <i type="logical" name="NUCIND"> F  </i>
   <v name="MAGPOS">      0.00000000      0.00000000      0.00000000</v>
   <i type="logical" name="LNICSALL"> T  </i>
   <i type="logical" name="ORBITALMAG"> F  </i>
   <i type="logical" name="LMAGBLOCH"> F  </i>
   <i type="logical" name="LCHIMAG"> F  </i>
   <i type="logical" name="LGAUGE"> T  </i>
   <i type="int" name="MAGATOM">     0</i>
   <v name="MAGDIPOL">      0.00000000      0.00000000      0.00000000</v>
   <v name="AVECCONST">      0.00000000      0.00000000      0.00000000</v>
  </separator>
  <separator name="response functions" >
   <i type="logical" name="LADDER"> F  </i>
   <i type="logical" name="LRPAFORCE"> F  </i>
   <i type="logical" name="LFXC"> F  </i>
   <i type="logical" name="LHARTREE"> T  </i>
   <i type="int" name="IBSE">     0</i>
   <v type="int" name="KPOINT">    -1     0     0     0</v>
   <i type="logical" name="LTCTE"> F  </i>
   <i type="logical" name="LTETE"> F  </i>
   <i type="logical" name="LTRIPLET"> F  </i>
   <i type="logical" name="LFXCEPS"> F  </i>
   <i type="logical" name="LFXHEG"> F  </i>
   <i type="int" name="NATURALO">     2</i>
   <i type="logical" name="L2ORDER"> F  </i>
   <i type="logical" name="LMP2LT"> F  </i>
   <i type="logical" name="LUSEW"> F  </i>
   <i name="ENCUTGW">     -2.00000000</i>
   <i name="ENCUTGWSOFT">     -2.00000000</i>
   <i name="ENCUTLF">     -1.00000000</i>
   <i type="int" name="LMAXMP2">    -1</i>
   <i name="SCISSOR">      0.00000000</i>
   <i type="int" name="NOMEGA">     0</i>
   <i type="int" name="NOMEGAR">     0</i>
   <i type="int" name="NBANDSGW">    -1</i>
   <i type="int" name="NBANDSO">    -1</i>
   <i type="int" name="NBANDSV">    -1</i>
   <i type="int" name="NELM">   200</i>
   <i type="int" name="NELMHF">     1</i>
   <i type="int" name="DIM">     3</i>
   <i type="int" name="ANTIRES">     0</i>
   <i name="OMEGAMAX">    -30.00000000</i>
   <i name="OMEGAMIN">    -30.00000000</i>
   <i name="OMEGATL">   -200.00000000</i>
   <i type="int" name="OMEGAGRID">   140</i>
   <i name="CSHIFT">     -0.10000000</i>
   <i type="logical" name="SELFENERGY"> F  </i>
   <i type="logical" name="LSPECTRAL"> F  </i>
   <i type="logical" name="LSPECTRALGW"> F  </i>
   <i type="logical" name="LSINGLES"> F  </i>
   <i type="logical" name="LFERMIGW"> F  </i>
   <i type="logical" name="ODDONLYGW"> F  </i>
   <i type="logical" name="EVENONLYGW"> F  </i>
   <i type="int" name="NKREDLFX">     1</i>
   <i type="int" name="NKREDLFY">     1</i>
   <i type="int" name="NKREDLFZ">     1</i>
   <i type="int" name="MAXMEM">  2800</i>
   <i type="int" name="TELESCOPE">     0</i>
   <i type="int" name="TAUPAR">     1</i>
   <i type="int" name="OMEGAPAR">    -1</i>
   <i name="LAMBDA">      1.00000000</i>
  </separator>
  <separator name="External order field" >
   <i name="OFIELD_KAPPA">      0.00000000</i>
   <v name="OFIELD_K">      0.00000000      0.00000000      0.00000000</v>
   <i name="OFIELD_Q6_NEAR">      0.00000000</i>
   <i name="OFIELD_Q6_FAR">      0.00000000</i>
   <i name="OFIELD_A">      0.00000000</i>
  </separator>
  <separator name="solvation model" >
   <i type="logical" name="LSOL"> F  </i>
  </separator>
 </parameters>
 <atominfo>
  <atoms>     126 </atoms>
  <types>       3 </types>
  <array name="atoms" >
   <dimension dim="1">ion</dimension>
   <field type="string">element</field>
   <field type="int">atomtype</field>
   <set>
    <rc><c>C </c><c>   1</c></rc>
    <rc><c>C </c><c>   1</c></rc>
    <rc><c>C </c><c>   1</c></rc>
    <rc><c>C </c><c>   1</c></rc>
    <rc><c>C </c><c>   1</c></rc>
    <rc><c>C </c><c>   1</c></rc>
    <rc><c>C </c><c>   1</c></rc>
    <rc><c>C </c><c>   1</c></rc>
    <rc><c>C </c><c>   1</c></rc>
    <rc><c>C </c><c>   1</c></rc>
    <rc><c>C </c><c>   1</c></rc>
    <rc><c>C </c><c>   1</c></rc>
    <rc><c>C </c><c>   1</c></rc>
    <rc><c>C </c><c>   1</c></rc>
    <rc><c>C </c><c>   1</c></rc>
    <rc><c>C </c><c>   1</c></rc>
    <rc><c>C </c><c>   1</c></rc>
    <rc><c>C </c><c>   1</c></rc>
    <rc><c>C </c><c>   1</c></rc>
    <rc><c>C </c><c>   1</c></rc>
    <rc><c>C </c><c>   1</c></rc>
    <rc><c>C </c><c>   1</c></rc>
    <rc><c>C </c><c>   1</c></rc>
    <rc><c>C </c><c>   1</c></rc>
    <rc><c>C </c><c>   1</c></rc>
    <rc><c>C </c><c>   1</c></rc>
    <rc><c>C </c><c>   1</c></rc>
    <rc><c>C </c><c>   1</c></rc>
    <rc><c>C </c><c>   1</c></rc>
    <rc><c>C </c><c>   1</c></rc>
    <rc><c>C </c><c>   1</c></rc>
    <rc><c>C </c><c>   1</c></rc>
    <rc><c>C </c><c>   1</c></rc>
    <rc><c>C </c><c>   1</c></rc>
    <rc><c>C </c><c>   1</c></rc>
    <rc><c>C </c><c>   1</c></rc>
    <rc><c>C </c><c>   1</c></rc>
    <rc><c>C </c><c>   1</c></rc>
    <rc><c>C </c><c>   1</c></rc>
    <rc><c>C </c><c>   1</c></rc>
    <rc><c>C </c><c>   1</c></rc>
    <rc><c>C </c><c>   1</c></rc>
    <rc><c>C </c><c>   1</c></rc>
    <rc><c>C </c><c>   1</c></rc>
    <rc><c>C </c><c>   1</c></rc>
    <rc><c>C </c><c>   1</c></rc>
    <rc><c>C </c><c>   1</c></rc>
    <rc><c>C </c><c>   1</c></rc>
    <rc><c>C </c><c>   1</c></rc>
    <rc><c>C </c><c>   1</c></rc>
    <rc><c>C </c><c>   1</c></rc>
    <rc><c>C </c><c>   1</c></rc>
    <rc><c>C </c><c>   1</c></rc>
    <rc><c>C </c><c>   1</c></rc>
    <rc><c>C </c><c>   1</c></rc>
    <rc><c>C </c><c>   1</c></rc>
    <rc><c>C </c><c>   1</c></rc>
    <rc><c>C </c><c>   1</c></rc>
    <rc><c>C </c><c>   1</c></rc>
    <rc><c>C </c><c>   1</c></rc>
    <rc><c>C </c><c>   1</c></rc>
    <rc><c>C </c><c>   1</c></rc>
    <rc><c>C </c><c>   1</c></rc>
    <rc><c>C </c><c>   1</c></rc>
    <rc><c>C </c><c>   1</c></rc>
    <rc><c>C </c><c>   1</c></rc>
    <rc><c>C </c><c>   1</c></rc>
    <rc><c>C </c><c>   1</c></rc>
    <rc><c>C </c><c>   1</c></rc>
    <rc><c>C </c><c>   1</c></rc>
    <rc><c>C </c><c>   1</c></rc>
    <rc><c>C </c><c>   1</c></rc>
    <rc><c>N </c><c>   2</c></rc>
    <rc><c>N </c><c>   2</c></rc>
    <rc><c>N </c><c>   2</c></rc>
    <rc><c>N </c><c>   2</c></rc>
    <rc><c>N </c><c>   2</c></rc>
    <rc><c>N </c><c>   2</c></rc>
    <rc><c>N </c><c>   2</c></rc>
    <rc><c>N </c><c>   2</c></rc>
    <rc><c>N </c><c>   2</c></rc>
    <rc><c>N </c><c>   2</c></rc>
    <rc><c>N </c><c>   2</c></rc>
    <rc><c>N </c><c>   2</c></rc>
    <rc><c>H </c><c>   3</c></rc>
    <rc><c>H </c><c>   3</c></rc>
    <rc><c>H </c><c>   3</c></rc>
    <rc><c>H </c><c>   3</c></rc>
    <rc><c>H </c><c>   3</c></rc>
    <rc><c>H </c><c>   3</c></rc>
    <rc><c>H </c><c>   3</c></rc>
    <rc><c>H </c><c>   3</c></rc>
    <rc><c>H </c><c>   3</c></rc>
    <rc><c>H </c><c>   3</c></rc>
    <rc><c>H </c><c>   3</c></rc>
    <rc><c>H </c><c>   3</c></rc>
    <rc><c>H </c><c>   3</c></rc>
    <rc><c>H </c><c>   3</c></rc>
    <rc><c>H </c><c>   3</c></rc>
    <rc><c>H </c><c>   3</c></rc>
    <rc><c>H </c><c>   3</c></rc>
    <rc><c>H </c><c>   3</c></rc>
    <rc><c>H </c><c>   3</c></rc>
    <rc><c>H </c><c>   3</c></rc>
    <rc><c>H </c><c>   3</c></rc>
    <rc><c>H </c><c>   3</c></rc>
    <rc><c>H </c><c>   3</c></rc>
    <rc><c>H </c><c>   3</c></rc>
    <rc><c>H </c><c>   3</c></rc>
    <rc><c>H </c><c>   3</c></rc>
    <rc><c>H </c><c>   3</c></rc>
    <rc><c>H </c><c>   3</c></rc>
    <rc><c>H </c><c>   3</c></rc>
    <rc><c>H </c><c>   3</c></rc>
    <rc><c>H </c><c>   3</c></rc>
    <rc><c>H </c><c>   3</c></rc>
    <rc><c>H </c><c>   3</c></rc>
    <rc><c>H </c><c>   3</c></rc>
    <rc><c>H </c><c>   3</c></rc>
    <rc><c>H </c><c>   3</c></rc>
    <rc><c>H </c><c>   3</c></rc>
    <rc><c>H </c><c>   3</c></rc>
    <rc><c>H </c><c>   3</c></rc>
    <rc><c>H </c><c>   3</c></rc>
    <rc><c>H </c><c>   3</c></rc>
    <rc><c>H </c><c>   3</c></rc>
   </set>
  </array>
  <array name="atomtypes" >
   <dimension dim="1">type</dimension>
   <field type="int">atomspertype</field>
   <field type="string">element</field>
   <field>mass</field>
   <field>valence</field>
   <field type="string">pseudopotential</field>
   <set>
    <rc><c>  72</c><c>C </c><c>     12.01100000</c><c>      4.00000000</c><c>  PAW_PBE C 08Apr2002                   </c></rc>
    <rc><c>  12</c><c>N </c><c>     14.00100000</c><c>      5.00000000</c><c>  PAW_PBE N 08Apr2002                   </c></rc>
    <rc><c>  42</c><c>H </c><c>      1.00000000</c><c>      1.00000000</c><c>  PAW_PBE H 15Jun2001                   </c></rc>
   </set>
  </array>
 </atominfo>
 <structure name="initialpos" >
  <crystal>
   <varray name="basis" >
    <v>      36.72801074       0.00000000       0.00000000 </v>
    <v>     -18.36400537      31.80739033       0.00000000 </v>
    <v>       0.00000000       0.00000000      20.00000000 </v>
   </varray>
   <i name="volume">  23364.44347434 </i>
   <varray name="rec_basis" >
    <v>       0.02722718       0.01571962       0.00000000 </v>
    <v>       0.00000000       0.03143923       0.00000000 </v>
    <v>       0.00000000       0.00000000       0.05000000 </v>
   </varray>
  </crystal>
  <varray name="positions" >
   <v>       0.35399190       0.70798380       0.50312184 </v>
   <v>       0.35399190       0.64600810       0.50312184 </v>
   <v>       0.29201620       0.64600810       0.50312184 </v>
   <v>       0.37725308       0.62274692       0.50284866 </v>
   <v>       0.42141468       0.64451002       0.50262390 </v>
   <v>       0.44325633       0.62258554       0.50176756 </v>
   <v>       0.42157087       0.57842913       0.50102989 </v>
   <v>       0.37741446       0.55674367       0.50176756 </v>
   <v>       0.35548998       0.57858532       0.50262390 </v>
   <v>       0.37725308       0.75450616       0.50284866 </v>
   <v>       0.42141468       0.77690466       0.50262390 </v>
   <v>       0.44325633       0.82067079       0.50176756 </v>
   <v>       0.42157087       0.84314174       0.50102989 </v>
   <v>       0.37741446       0.82067079       0.50176756 </v>
   <v>       0.35548998       0.77690466       0.50262390 </v>
   <v>       0.24549384       0.62274692       0.50284866 </v>
   <v>       0.22309534       0.64451002       0.50262390 </v>
   <v>       0.17932921       0.62258554       0.50176756 </v>
   <v>       0.15685826       0.57842913       0.50102989 </v>
   <v>       0.17932921       0.55674367       0.50176756 </v>
   <v>       0.22309534       0.57858532       0.50262390 </v>
   <v>       0.64600671       0.29201341       0.50013956 </v>
   <v>       0.64600671       0.35399329       0.50013956 </v>
   <v>       0.70798659       0.35399329       0.50013956 </v>
   <v>       0.62274271       0.37725729       0.50072193 </v>
   <v>       0.57857970       0.35550012       0.50123427 </v>
   <v>       0.55674141       0.37742361       0.50257043 </v>
   <v>       0.57842155       0.42157845       0.50351071 </v>
   <v>       0.62257639       0.44325859       0.50257043 </v>
   <v>       0.64449988       0.42142030       0.50123427 </v>
   <v>       0.62274271       0.24548542       0.50072193 </v>
   <v>       0.57857970       0.22307958       0.50123427 </v>
   <v>       0.55674141       0.17931780       0.50257043 </v>
   <v>       0.57842155       0.15684310       0.50351071 </v>
   <v>       0.62257639       0.17931780       0.50257043 </v>
   <v>       0.64449988       0.22307958       0.50123427 </v>
   <v>       0.75451458       0.37725729       0.50072193 </v>
   <v>       0.77692042       0.35550012       0.50123427 </v>
   <v>       0.82068220       0.37742361       0.50257043 </v>
   <v>       0.84315690       0.42157845       0.50351071 </v>
   <v>       0.82068220       0.44325859       0.50257043 </v>
   <v>       0.77692042       0.42142030       0.50123427 </v>
   <v>       0.45686639       0.54313361       0.55817742 </v>
   <v>       0.51165945       0.48834055       0.50428806 </v>
   <v>       0.52219820       0.47780180       0.56596894 </v>
   <v>       0.54405875       0.45594125       0.56648345 </v>
   <v>       0.55508187       0.44491813       0.50578271 </v>
   <v>       0.45686639       0.91373277       0.55817742 </v>
   <v>       0.51165945       0.02331890       0.50428806 </v>
   <v>       0.52219820       0.04439640       0.56596894 </v>
   <v>       0.54405875       0.08811750       0.56648345 </v>
   <v>       0.55508187       0.11016373       0.50578271 </v>
   <v>       0.08626723       0.54313361       0.55817742 </v>
   <v>       0.97668110       0.48834055       0.50428806 </v>
   <v>       0.95560360       0.47780180       0.56596894 </v>
   <v>       0.91188250       0.45594125       0.56648345 </v>
   <v>       0.88983627       0.44491813       0.50578271 </v>
   <v>       0.44491082       0.55508918       0.49909788 </v>
   <v>       0.45598888       0.54401112       0.43850529 </v>
   <v>       0.47784279       0.52215721       0.43930587 </v>
   <v>       0.48831452       0.51168548       0.50112797 </v>
   <v>       0.54305798       0.45694202       0.44685857 </v>
   <v>       0.44491082       0.88982164       0.49909788 </v>
   <v>       0.45598888       0.91197775       0.43850529 </v>
   <v>       0.47784279       0.95568558       0.43930587 </v>
   <v>       0.48831452       0.97662905       0.50112797 </v>
   <v>       0.54305798       0.08611596       0.44685857 </v>
   <v>       0.11017836       0.55508918       0.49909788 </v>
   <v>       0.08802225       0.54401112       0.43850529 </v>
   <v>       0.04431442       0.52215721       0.43930587 </v>
   <v>       0.02337095       0.51168548       0.50112797 </v>
   <v>       0.91388404       0.45694202       0.44685857 </v>
   <v>       0.37652719       0.68826360       0.50312025 </v>
   <v>       0.31173640       0.62347281       0.50312025 </v>
   <v>       0.31173640       0.68826360       0.50312025 </v>
   <v>       0.62346178       0.31173089       0.50009074 </v>
   <v>       0.68826911       0.37653822       0.50009074 </v>
   <v>       0.68826911       0.31173089       0.50009074 </v>
   <v>       0.47785840       0.52214160       0.55977975 </v>
   <v>       0.47785840       0.95571681       0.55977975 </v>
   <v>       0.04428319       0.52214160       0.55977975 </v>
   <v>       0.52207184       0.47792816       0.44558808 </v>
   <v>       0.52207184       0.04414368       0.44558808 </v>
   <v>       0.95585632       0.47792816       0.44558808 </v>
   <v>       0.47756682       0.83788468       0.50145317 </v>
   <v>       0.43816888       0.75940893       0.50298493 </v>
   <v>       0.36031785       0.83788468       0.50145317 </v>
   <v>       0.32124005       0.75940893       0.50298493 </v>
   <v>       0.24059107       0.67875995       0.50298493 </v>
   <v>       0.16211532       0.63968215       0.50145317 </v>
   <v>       0.24059107       0.56183112       0.50298493 </v>
   <v>       0.16211532       0.52243318       0.50145317 </v>
   <v>       0.32124005       0.56183112       0.50298493 </v>
   <v>       0.36031785       0.52243318       0.50145317 </v>
   <v>       0.47756682       0.63968215       0.50145317 </v>
   <v>       0.43816888       0.67875995       0.50298493 </v>
   <v>       0.52243524       0.16212025       0.50309342 </v>
   <v>       0.56182241       0.24057286       0.50074735 </v>
   <v>       0.63968501       0.16212025       0.50309342 </v>
   <v>       0.67875045       0.24057286       0.50074735 </v>
   <v>       0.75942714       0.32124955       0.50074735 </v>
   <v>       0.83787975       0.36031499       0.50309342 </v>
   <v>       0.75942714       0.43817759       0.50074735 </v>
   <v>       0.83787975       0.47756476       0.50309342 </v>
   <v>       0.67875045       0.43817759       0.50074735 </v>
   <v>       0.63968501       0.47756476       0.50309342 </v>
   <v>       0.52243524       0.36031499       0.50309342 </v>
   <v>       0.56182241       0.32124955       0.50074735 </v>
   <v>       0.51302488       0.48697512       0.61194178 </v>
   <v>       0.55269469       0.44730531       0.61364690 </v>
   <v>       0.44888234       0.55111766       0.60664307 </v>
   <v>       0.51302488       0.02604977       0.61194178 </v>
   <v>       0.55269469       0.10538938       0.61364690 </v>
   <v>       0.44888234       0.89776468       0.60664307 </v>
   <v>       0.97395023       0.48697512       0.61194178 </v>
   <v>       0.89461062       0.44730531       0.61364690 </v>
   <v>       0.10223532       0.55111766       0.60664307 </v>
   <v>       0.55096552       0.44903448       0.39826868 </v>
   <v>       0.44740524       0.55259476       0.39123826 </v>
   <v>       0.48707401       0.51292599       0.39344901 </v>
   <v>       0.55096552       0.10193104       0.39826868 </v>
   <v>       0.44740524       0.89481049       0.39123826 </v>
   <v>       0.48707401       0.97414802       0.39344901 </v>
   <v>       0.89806896       0.44903448       0.39826868 </v>
   <v>       0.10518951       0.55259476       0.39123826 </v>
   <v>       0.02585198       0.51292599       0.39344901 </v>
  </varray>
 </structure>
 <calculation>
  <scstep>
   <time name="dav"> 1139.09 1151.57</time>
   <time name="total"> 1139.54 1152.03</time>
   <energy>
    <i name="alphaZ">     30.70582905 </i>
    <i name="ewald">  51074.39134253 </i>
    <i name="hartreedc"> -62684.73092863 </i>
    <i name="XCdc">   1343.93694389 </i>
    <i name="pawpsdc">  36328.15979721 </i>
    <i name="pawaedc"> -36395.13175636 </i>
    <i name="eentropy">     -0.00000000 </i>
    <i name="bandstr">  -4891.05404960 </i>
    <i name="atom">  14293.53460882 </i>
    <i name="e_fr_energy">   -900.18821308 </i>
    <i name="e_wo_entrp">   -900.18821308 </i>
    <i name="e_0_energy">   -900.18821308 </i>
   </energy>
  </scstep>
  <scstep>
   <time name="dav"> 1214.68 1227.92</time>
   <time name="total"> 1214.68 1227.93</time>
   <energy>
    <i name="e_fr_energy">   -900.48423955 </i>
    <i name="e_wo_entrp">   -900.48423955 </i>
    <i name="e_0_energy">   -900.48423955 </i>
   </energy>
  </scstep>
  <scstep>
   <time name="dav"> 1395.91 1411.03</time>
   <time name="total"> 1395.91 1411.03</time>
   <energy>
    <i name="e_fr_energy">   -900.49370253 </i>
    <i name="e_wo_entrp">   -900.49370253 </i>
    <i name="e_0_energy">   -900.49370253 </i>
   </energy>
  </scstep>
  <scstep>
   <time name="dav"> 1221.37 1234.65</time>
   <time name="total"> 1221.37 1234.65</time>
   <energy>
    <i name="e_fr_energy">   -900.49389525 </i>
    <i name="e_wo_entrp">   -900.49389525 </i>
    <i name="e_0_energy">   -900.49389525 </i>
   </energy>
  </scstep>
  <scstep>
   <time name="dav"> 1188.61 1201.52</time>
   <time name="total"> 1188.61 1201.52</time>
   <energy>
    <i name="e_fr_energy">   -900.49390530 </i>
    <i name="e_wo_entrp">   -900.49390530 </i>
    <i name="e_0_energy">   -900.49390530 </i>
   </energy>
  </scstep>
  <scstep>
   <time name="dav">  954.65  965.00</time>
   <time name="total">  954.65  965.00</time>
   <energy>
    <i name="alphaZ">     30.70582905 </i>
    <i name="ewald">  51074.39134253 </i>
    <i name="hartreedc"> -62684.73092863 </i>
    <i name="XCdc">   1343.93694389 </i>
    <i name="pawpsdc">  36328.15979721 </i>
    <i name="pawaedc"> -36395.13175636 </i>
    <i name="eentropy">     -0.00000000 </i>
    <i name="bandstr">  -4891.35974197 </i>
    <i name="atom">  14293.53460882 </i>
    <i name="e_fr_energy">   -900.49390546 </i>
    <i name="e_wo_entrp">   -900.49390546 </i>
    <i name="e_0_energy">   -900.49390546 </i>
   </energy>
  </scstep>
  <structure>
   <crystal>
    <varray name="basis" >
     <v>      36.72801074       0.00000000       0.00000000 </v>
     <v>     -18.36400537      31.80739033       0.00000000 </v>
     <v>       0.00000000       0.00000000      20.00000000 </v>
    </varray>
    <i name="volume">  23364.44347434 </i>
    <varray name="rec_basis" >
     <v>       0.02722718       0.01571962       0.00000000 </v>
     <v>       0.00000000       0.03143923       0.00000000 </v>
     <v>       0.00000000       0.00000000       0.05000000 </v>
    </varray>
   </crystal>
   <varray name="positions" >
    <v>       0.35399190       0.70798380       0.50312184 </v>
    <v>       0.35399190       0.64600810       0.50312184 </v>
    <v>       0.29201620       0.64600810       0.50312184 </v>
    <v>       0.37725308       0.62274692       0.50284866 </v>
    <v>       0.42141468       0.64451002       0.50262390 </v>
    <v>       0.44325633       0.62258554       0.50176756 </v>
    <v>       0.42157087       0.57842913       0.50102989 </v>
    <v>       0.37741446       0.55674367       0.50176756 </v>
    <v>       0.35548998       0.57858532       0.50262390 </v>
    <v>       0.37725308       0.75450616       0.50284866 </v>
    <v>       0.42141468       0.77690466       0.50262390 </v>
    <v>       0.44325633       0.82067079       0.50176756 </v>
    <v>       0.42157087       0.84314174       0.50102989 </v>
    <v>       0.37741446       0.82067079       0.50176756 </v>
    <v>       0.35548998       0.77690466       0.50262390 </v>
    <v>       0.24549384       0.62274692       0.50284866 </v>
    <v>       0.22309534       0.64451002       0.50262390 </v>
    <v>       0.17932921       0.62258554       0.50176756 </v>
    <v>       0.15685826       0.57842913       0.50102989 </v>
    <v>       0.17932921       0.55674367       0.50176756 </v>
    <v>       0.22309534       0.57858532       0.50262390 </v>
    <v>       0.64600671       0.29201341       0.50013956 </v>
    <v>       0.64600671       0.35399329       0.50013956 </v>
    <v>       0.70798659       0.35399329       0.50013956 </v>
    <v>       0.62274271       0.37725729       0.50072193 </v>
    <v>       0.57857970       0.35550012       0.50123427 </v>
    <v>       0.55674141       0.37742361       0.50257043 </v>
    <v>       0.57842155       0.42157845       0.50351071 </v>
    <v>       0.62257639       0.44325859       0.50257043 </v>
    <v>       0.64449988       0.42142030       0.50123427 </v>
    <v>       0.62274271       0.24548542       0.50072193 </v>
    <v>       0.57857970       0.22307958       0.50123427 </v>
    <v>       0.55674141       0.17931780       0.50257043 </v>
    <v>       0.57842155       0.15684310       0.50351071 </v>
    <v>       0.62257639       0.17931780       0.50257043 </v>
    <v>       0.64449988       0.22307958       0.50123427 </v>
    <v>       0.75451458       0.37725729       0.50072193 </v>
    <v>       0.77692042       0.35550012       0.50123427 </v>
    <v>       0.82068220       0.37742361       0.50257043 </v>
    <v>       0.84315690       0.42157845       0.50351071 </v>
    <v>       0.82068220       0.44325859       0.50257043 </v>
    <v>       0.77692042       0.42142030       0.50123427 </v>
    <v>       0.45686639       0.54313361       0.55817742 </v>
    <v>       0.51165945       0.48834055       0.50428806 </v>
    <v>       0.52219820       0.47780180       0.56596894 </v>
    <v>       0.54405875       0.45594125       0.56648345 </v>
    <v>       0.55508187       0.44491813       0.50578271 </v>
    <v>       0.45686639       0.91373277       0.55817742 </v>
    <v>       0.51165945       0.02331890       0.50428806 </v>
    <v>       0.52219820       0.04439640       0.56596894 </v>
    <v>       0.54405875       0.08811750       0.56648345 </v>
    <v>       0.55508187       0.11016373       0.50578271 </v>
    <v>       0.08626723       0.54313361       0.55817742 </v>
    <v>       0.97668110       0.48834055       0.50428806 </v>
    <v>       0.95560360       0.47780180       0.56596894 </v>
    <v>       0.91188250       0.45594125       0.56648345 </v>
    <v>       0.88983627       0.44491813       0.50578271 </v>
    <v>       0.44491082       0.55508918       0.49909788 </v>
    <v>       0.45598888       0.54401112       0.43850529 </v>
    <v>       0.47784279       0.52215721       0.43930587 </v>
    <v>       0.48831452       0.51168548       0.50112797 </v>
    <v>       0.54305798       0.45694202       0.44685857 </v>
    <v>       0.44491082       0.88982164       0.49909788 </v>
    <v>       0.45598888       0.91197775       0.43850529 </v>
    <v>       0.47784279       0.95568558       0.43930587 </v>
    <v>       0.48831452       0.97662905       0.50112797 </v>
    <v>       0.54305798       0.08611596       0.44685857 </v>
    <v>       0.11017836       0.55508918       0.49909788 </v>
    <v>       0.08802225       0.54401112       0.43850529 </v>
    <v>       0.04431442       0.52215721       0.43930587 </v>
    <v>       0.02337095       0.51168548       0.50112797 </v>
    <v>       0.91388404       0.45694202       0.44685857 </v>
    <v>       0.37652719       0.68826360       0.50312025 </v>
    <v>       0.31173640       0.62347281       0.50312025 </v>
    <v>       0.31173640       0.68826360       0.50312025 </v>
    <v>       0.62346178       0.31173089       0.50009074 </v>
    <v>       0.68826911       0.37653822       0.50009074 </v>
    <v>       0.68826911       0.31173089       0.50009074 </v>
    <v>       0.47785840       0.52214160       0.55977975 </v>
    <v>       0.47785840       0.95571681       0.55977975 </v>
    <v>       0.04428319       0.52214160       0.55977975 </v>
    <v>       0.52207184       0.47792816       0.44558808 </v>
    <v>       0.52207184       0.04414368       0.44558808 </v>
    <v>       0.95585632       0.47792816       0.44558808 </v>
    <v>       0.47756682       0.83788468       0.50145317 </v>
    <v>       0.43816888       0.75940893       0.50298493 </v>
    <v>       0.36031785       0.83788468       0.50145317 </v>
    <v>       0.32124005       0.75940893       0.50298493 </v>
    <v>       0.24059107       0.67875995       0.50298493 </v>
    <v>       0.16211532       0.63968215       0.50145317 </v>
    <v>       0.24059107       0.56183112       0.50298493 </v>
    <v>       0.16211532       0.52243318       0.50145317 </v>
    <v>       0.32124005       0.56183112       0.50298493 </v>
    <v>       0.36031785       0.52243318       0.50145317 </v>
    <v>       0.47756682       0.63968215       0.50145317 </v>
    <v>       0.43816888       0.67875995       0.50298493 </v>
    <v>       0.52243524       0.16212025       0.50309342 </v>
    <v>       0.56182241       0.24057286       0.50074735 </v>
    <v>       0.63968501       0.16212025       0.50309342 </v>
    <v>       0.67875045       0.24057286       0.50074735 </v>
    <v>       0.75942714       0.32124955       0.50074735 </v>
    <v>       0.83787975       0.36031499       0.50309342 </v>
    <v>       0.75942714       0.43817759       0.50074735 </v>
    <v>       0.83787975       0.47756476       0.50309342 </v>
    <v>       0.67875045       0.43817759       0.50074735 </v>
    <v>       0.63968501       0.47756476       0.50309342 </v>
    <v>       0.52243524       0.36031499       0.50309342 </v>
    <v>       0.56182241       0.32124955       0.50074735 </v>
    <v>       0.51302488       0.48697512       0.61194178 </v>
    <v>       0.55269469       0.44730531       0.61364690 </v>
    <v>       0.44888234       0.55111766       0.60664307 </v>
    <v>       0.51302488       0.02604977       0.61194178 </v>
    <v>       0.55269469       0.10538938       0.61364690 </v>
    <v>       0.44888234       0.89776468       0.60664307 </v>
    <v>       0.97395023       0.48697512       0.61194178 </v>
    <v>       0.89461062       0.44730531       0.61364690 </v>
    <v>       0.10223532       0.55111766       0.60664307 </v>
    <v>       0.55096552       0.44903448       0.39826868 </v>
    <v>       0.44740524       0.55259476       0.39123826 </v>
    <v>       0.48707401       0.51292599       0.39344901 </v>
    <v>       0.55096552       0.10193104       0.39826868 </v>
    <v>       0.44740524       0.89481049       0.39123826 </v>
    <v>       0.48707401       0.97414802       0.39344901 </v>
    <v>       0.89806896       0.44903448       0.39826868 </v>
    <v>       0.10518951       0.55259476       0.39123826 </v>
    <v>       0.02585198       0.51292599       0.39344901 </v>
   </varray>
  </structure>
  <varray name="forces" >
   <v>       0.00000000      -0.00064994      -0.00197535 </v>
   <v>      -0.00056286       0.00032497      -0.00197535 </v>
   <v>       0.00056286       0.00032497      -0.00197535 </v>
   <v>      -0.00126157       0.00072837       0.00637718 </v>
   <v>       0.00227267      -0.00249752       0.00006520 </v>
   <v>       0.00193486      -0.00073230      -0.00516815 </v>
   <v>      -0.00430160       0.00248353       0.00320390 </v>
   <v>       0.00160162      -0.00130949      -0.00516815 </v>
   <v>       0.00329925      -0.00071943       0.00006520 </v>
   <v>       0.00000000      -0.00145674       0.00637718 </v>
   <v>      -0.00102658       0.00321695       0.00006520 </v>
   <v>       0.00033324       0.00204179      -0.00516815 </v>
   <v>       0.00000000      -0.00496706       0.00320390 </v>
   <v>      -0.00033324       0.00204179      -0.00516815 </v>
   <v>       0.00102658       0.00321695       0.00006520 </v>
   <v>       0.00126157       0.00072837       0.00637718 </v>
   <v>      -0.00227267      -0.00249752       0.00006520 </v>
   <v>      -0.00193486      -0.00073230      -0.00516815 </v>
   <v>       0.00430160       0.00248353       0.00320390 </v>
   <v>      -0.00160162      -0.00130949      -0.00516815 </v>
   <v>      -0.00329925      -0.00071943       0.00006520 </v>
   <v>       0.00000000      -0.00136630      -0.00391997 </v>
   <v>      -0.00118325       0.00068315      -0.00391997 </v>
   <v>       0.00118325       0.00068315      -0.00391997 </v>
   <v>      -0.00007186       0.00004149      -0.00004403 </v>
   <v>       0.00260648       0.00069746      -0.00191386 </v>
   <v>      -0.00093114       0.00001583       0.00217266 </v>
   <v>       0.00332915      -0.00192208       0.00112950 </v>
   <v>      -0.00047928       0.00079847       0.00217266 </v>
   <v>       0.00069922      -0.00260601      -0.00191386 </v>
   <v>       0.00000000      -0.00008298      -0.00004403 </v>
   <v>       0.00190726       0.00190855      -0.00191386 </v>
   <v>      -0.00045186      -0.00081430       0.00217266 </v>
   <v>      -0.00000000       0.00384417       0.00112950 </v>
   <v>       0.00045186      -0.00081430       0.00217266 </v>
   <v>      -0.00190726       0.00190855      -0.00191386 </v>
   <v>       0.00007186       0.00004149      -0.00004403 </v>
   <v>      -0.00260648       0.00069746      -0.00191386 </v>
   <v>       0.00093114       0.00001583       0.00217266 </v>
   <v>      -0.00332915      -0.00192208       0.00112950 </v>
   <v>       0.00047928       0.00079847       0.00217266 </v>
   <v>      -0.00069922      -0.00260601      -0.00191386 </v>
   <v>      -0.00163191       0.00094219       0.00441645 </v>
   <v>       0.00480090      -0.00277180       0.00129252 </v>
   <v>      -0.00086745       0.00050082       0.00321593 </v>
   <v>       0.00398572      -0.00230115       0.00246801 </v>
   <v>      -0.00012445       0.00007185       0.00354303 </v>
   <v>       0.00000000      -0.00188437       0.00441645 </v>
   <v>      -0.00000000       0.00554360       0.00129252 </v>
   <v>       0.00000000      -0.00100164       0.00321593 </v>
   <v>      -0.00000000       0.00460231       0.00246801 </v>
   <v>       0.00000000      -0.00014371       0.00354303 </v>
   <v>       0.00163191       0.00094219       0.00441645 </v>
   <v>      -0.00480090      -0.00277180       0.00129252 </v>
   <v>       0.00086745       0.00050082       0.00321593 </v>
   <v>      -0.00398572      -0.00230115       0.00246801 </v>
   <v>       0.00012445       0.00007185       0.00354303 </v>
   <v>       0.00350386      -0.00202296       0.00217271 </v>
   <v>      -0.00266549       0.00153892      -0.00095107 </v>
   <v>       0.00606486      -0.00350155       0.00203167 </v>
   <v>      -0.00450922       0.00260340      -0.00369368 </v>
   <v>      -0.00094055       0.00054303      -0.00240545 </v>
   <v>      -0.00000000       0.00404591       0.00217271 </v>
   <v>       0.00000000      -0.00307784      -0.00095107 </v>
   <v>      -0.00000000       0.00700310       0.00203167 </v>
   <v>       0.00000000      -0.00520680      -0.00369368 </v>
   <v>       0.00000000      -0.00108606      -0.00240545 </v>
   <v>      -0.00350386      -0.00202296       0.00217271 </v>
   <v>       0.00266549       0.00153892      -0.00095107 </v>
   <v>      -0.00606486      -0.00350155       0.00203167 </v>
   <v>       0.00450922       0.00260340      -0.00369368 </v>
   <v>       0.00094055       0.00054303      -0.00240545 </v>
   <v>       0.00148163       0.00085542      -0.00469296 </v>
   <v>       0.00000000      -0.00171084      -0.00469296 </v>
   <v>      -0.00148163       0.00085542      -0.00469296 </v>
   <v>      -0.00503732      -0.00290830      -0.00133770 </v>
   <v>      -0.00000000       0.00581660      -0.00133770 </v>
   <v>       0.00503732      -0.00290830      -0.00133770 </v>
   <v>      -0.00790858       0.00456602       0.00129391 </v>
   <v>       0.00000000      -0.00913205       0.00129391 </v>
   <v>       0.00790858       0.00456602       0.00129391 </v>
   <v>       0.00553513      -0.00319571      -0.00247631 </v>
   <v>      -0.00000000       0.00639142      -0.00247631 </v>
   <v>      -0.00553513      -0.00319571      -0.00247631 </v>
   <v>      -0.00016716      -0.00179604      -0.00104312 </v>
   <v>      -0.00256285       0.00137028      -0.00139606 </v>
   <v>       0.00016716      -0.00179604      -0.00104312 </v>
   <v>       0.00256285       0.00137028      -0.00139606 </v>
   <v>       0.00009473      -0.00290463      -0.00139606 </v>
   <v>       0.00163900       0.00075326      -0.00104312 </v>
   <v>      -0.00246812       0.00153435      -0.00139606 </v>
   <v>       0.00147184       0.00104279      -0.00104312 </v>
   <v>       0.00246812       0.00153435      -0.00139606 </v>
   <v>      -0.00147184       0.00104279      -0.00104312 </v>
   <v>      -0.00163900       0.00075326      -0.00104312 </v>
   <v>      -0.00009473      -0.00290463      -0.00139606 </v>
   <v>      -0.00195577      -0.00102953      -0.00055619 </v>
   <v>       0.00305783      -0.00251365      -0.00142283 </v>
   <v>       0.00195577      -0.00102953      -0.00055619 </v>
   <v>      -0.00305783      -0.00251365      -0.00142283 </v>
   <v>       0.00064797       0.00390499      -0.00142283 </v>
   <v>       0.00186949      -0.00117898      -0.00055619 </v>
   <v>       0.00370581      -0.00139133      -0.00142283 </v>
   <v>      -0.00008628       0.00220851      -0.00055619 </v>
   <v>      -0.00370581      -0.00139133      -0.00142283 </v>
   <v>       0.00008628       0.00220851      -0.00055619 </v>
   <v>      -0.00186949      -0.00117898      -0.00055619 </v>
   <v>      -0.00064797       0.00390499      -0.00142283 </v>
   <v>      -0.00160182       0.00092481       0.00496242 </v>
   <v>      -0.00072612       0.00041923       0.00389805 </v>
   <v>      -0.00087361       0.00050438       0.00184733 </v>
   <v>       0.00000000      -0.00184962       0.00496242 </v>
   <v>       0.00000000      -0.00083846       0.00389805 </v>
   <v>       0.00000000      -0.00100875       0.00184733 </v>
   <v>       0.00160182       0.00092481       0.00496242 </v>
   <v>       0.00072612       0.00041923       0.00389805 </v>
   <v>       0.00087361       0.00050438       0.00184733 </v>
   <v>       0.00434084      -0.00250619      -0.00296899 </v>
   <v>       0.00329378      -0.00190166       0.00026100 </v>
   <v>       0.00152651      -0.00088133       0.00087660 </v>
   <v>      -0.00000000       0.00501237      -0.00296899 </v>
   <v>      -0.00000000       0.00380333       0.00026100 </v>
   <v>      -0.00000000       0.00176266       0.00087660 </v>
   <v>      -0.00434084      -0.00250619      -0.00296899 </v>
   <v>      -0.00329378      -0.00190166       0.00026100 </v>
   <v>      -0.00152651      -0.00088133       0.00087660 </v>
  </varray>
  <varray name="stress" >
   <v>      -0.00217358       0.00000000       0.00000000 </v>
   <v>       0.00000000      -0.00217358      -0.00000000 </v>
   <v>      -0.00000000       0.00000000      -0.09193665 </v>
  </varray>
  <energy>
   <i name="e_fr_energy">   -902.75841629 </i>
   <i name="e_wo_entrp">   -902.75841629 </i>
   <i name="e_0_energy">     -0.00000000 </i>
  </energy>
  <time name="totalsc"> 8414.29 8510.00</time>
  <eigenvalues>
   <array>
    <dimension dim="1">band</dimension>
    <dimension dim="2">kpoint</dimension>
    <dimension dim="3">spin</dimension>
    <field>eigene</field>
    <field>occ</field>
    <set>
     <set comment="spin 1">
      <set comment="kpoint 1">
       <r>  -25.3617    1.0000 </r>
       <r>  -25.3612    1.0000 </r>
       <r>  -23.6769    1.0000 </r>
       <r>  -23.6769    1.0000 </r>
       <r>  -23.6756    1.0000 </r>
       <r>  -23.2288    1.0000 </r>
       <r>  -23.2287    1.0000 </r>
       <r>  -23.2274    1.0000 </r>
       <r>  -22.4445    1.0000 </r>
       <r>  -22.4440    1.0000 </r>
       <r>  -22.4432    1.0000 </r>
       <r>  -22.4430    1.0000 </r>
       <r>  -21.4746    1.0000 </r>
       <r>  -21.4543    1.0000 </r>
       <r>  -21.4090    1.0000 </r>
       <r>  -21.4087    1.0000 </r>
       <r>  -21.3882    1.0000 </r>
       <r>  -21.3878    1.0000 </r>
       <r>  -20.1176    1.0000 </r>
       <r>  -20.1170    1.0000 </r>
       <r>  -20.1156    1.0000 </r>
       <r>  -20.1150    1.0000 </r>
       <r>  -20.1054    1.0000 </r>
       <r>  -20.1045    1.0000 </r>
       <r>  -19.4468    1.0000 </r>
       <r>  -19.4463    1.0000 </r>
       <r>  -19.4441    1.0000 </r>
       <r>  -19.1641    1.0000 </r>
       <r>  -19.1635    1.0000 </r>
       <r>  -19.0619    1.0000 </r>
       <r>  -18.7927    1.0000 </r>
       <r>  -18.7923    1.0000 </r>
       <r>  -18.5428    1.0000 </r>
       <r>  -18.4958    1.0000 </r>
       <r>  -18.4952    1.0000 </r>
       <r>  -18.4946    1.0000 </r>
       <r>  -18.4944    1.0000 </r>
       <r>  -18.4536    1.0000 </r>
       <r>  -18.4533    1.0000 </r>
       <r>  -18.0610    1.0000 </r>
       <r>  -18.0604    1.0000 </r>
       <r>  -17.8329    1.0000 </r>
       <r>  -16.9847    1.0000 </r>
       <r>  -16.9842    1.0000 </r>
       <r>  -16.5836    1.0000 </r>
       <r>  -16.5831    1.0000 </r>
       <r>  -16.3409    1.0000 </r>
       <r>  -15.8973    1.0000 </r>
       <r>  -15.7938    1.0000 </r>
       <r>  -15.7932    1.0000 </r>
       <r>  -15.7123    1.0000 </r>
       <r>  -15.7120    1.0000 </r>
       <r>  -15.3827    1.0000 </r>
       <r>  -15.2080    1.0000 </r>
       <r>  -15.2070    1.0000 </r>
       <r>  -15.1242    1.0000 </r>
       <r>  -15.0712    1.0000 </r>
       <r>  -15.0707    1.0000 </r>
       <r>  -14.9917    1.0000 </r>
       <r>  -14.9915    1.0000 </r>
       <r>  -14.8620    1.0000 </r>
       <r>  -14.8618    1.0000 </r>
       <r>  -14.6912    1.0000 </r>
       <r>  -14.6684    1.0000 </r>
       <r>  -14.6680    1.0000 </r>
       <r>  -14.3383    1.0000 </r>
       <r>  -14.1305    1.0000 </r>
       <r>  -14.1301    1.0000 </r>
       <r>  -14.0683    1.0000 </r>
       <r>  -14.0679    1.0000 </r>
       <r>  -13.2966    1.0000 </r>
       <r>  -13.2958    1.0000 </r>
       <r>  -13.2854    1.0000 </r>
       <r>  -13.2789    1.0000 </r>
       <r>  -13.0550    1.0000 </r>
       <r>  -13.0544    1.0000 </r>
       <r>  -12.9866    1.0000 </r>
       <r>  -12.6949    1.0000 </r>
       <r>  -12.6944    1.0000 </r>
       <r>  -12.3979    1.0000 </r>
       <r>  -12.3975    1.0000 </r>
       <r>  -12.2988    1.0000 </r>
       <r>  -12.2740    1.0000 </r>
       <r>  -12.2734    1.0000 </r>
       <r>  -12.1900    1.0000 </r>
       <r>  -11.8090    1.0000 </r>
       <r>  -11.5173    1.0000 </r>
       <r>  -11.5172    1.0000 </r>
       <r>  -11.4051    1.0000 </r>
       <r>  -11.4046    1.0000 </r>
       <r>  -11.3951    1.0000 </r>
       <r>  -11.3564    1.0000 </r>
       <r>  -11.3562    1.0000 </r>
       <r>  -11.2253    1.0000 </r>
       <r>  -11.2205    1.0000 </r>
       <r>  -11.0640    1.0000 </r>
       <r>  -11.0639    1.0000 </r>
       <r>  -11.0137    1.0000 </r>
       <r>  -11.0137    1.0000 </r>
       <r>  -10.9100    1.0000 </r>
       <r>  -10.8910    1.0000 </r>
       <r>  -10.8605    1.0000 </r>
       <r>  -10.8026    1.0000 </r>
       <r>  -10.7640    1.0000 </r>
       <r>  -10.7635    1.0000 </r>
       <r>  -10.6708    1.0000 </r>
       <r>  -10.6271    1.0000 </r>
       <r>  -10.6265    1.0000 </r>
       <r>  -10.5538    1.0000 </r>
       <r>  -10.5532    1.0000 </r>
       <r>  -10.4051    1.0000 </r>
       <r>  -10.2271    1.0000 </r>
       <r>  -10.2265    1.0000 </r>
       <r>  -10.2104    1.0000 </r>
       <r>  -10.2101    1.0000 </r>
       <r>  -10.2073    1.0000 </r>
       <r>  -10.2039    1.0000 </r>
       <r>  -10.1599    1.0000 </r>
       <r>  -10.1595    1.0000 </r>
       <r>  -10.1323    1.0000 </r>
       <r>  -10.1007    1.0000 </r>
       <r>  -10.0095    1.0000 </r>
       <r>  -10.0090    1.0000 </r>
       <r>   -9.8136    1.0000 </r>
       <r>   -9.8130    1.0000 </r>
       <r>   -9.4990    1.0000 </r>
       <r>   -9.4985    1.0000 </r>
       <r>   -9.4628    1.0000 </r>
       <r>   -9.4623    1.0000 </r>
       <r>   -9.4175    1.0000 </r>
       <r>   -9.3806    1.0000 </r>
       <r>   -9.3799    1.0000 </r>
       <r>   -9.3784    1.0000 </r>
       <r>   -9.3747    1.0000 </r>
       <r>   -9.3739    1.0000 </r>
       <r>   -9.3683    1.0000 </r>
       <r>   -9.2044    1.0000 </r>
       <r>   -9.1880    1.0000 </r>
       <r>   -9.1874    1.0000 </r>
       <r>   -8.9368    1.0000 </r>
       <r>   -8.9341    1.0000 </r>
       <r>   -8.9027    1.0000 </r>
       <r>   -8.9023    1.0000 </r>
       <r>   -8.6199    1.0000 </r>
       <r>   -8.6159    1.0000 </r>
       <r>   -8.4986    1.0000 </r>
       <r>   -8.3959    1.0000 </r>
       <r>   -8.3957    1.0000 </r>
       <r>   -8.2978    1.0000 </r>
       <r>   -8.2977    1.0000 </r>
       <r>   -8.2915    1.0000 </r>
       <r>   -8.2794    1.0000 </r>
       <r>   -8.2792    1.0000 </r>
       <r>   -8.2192    1.0000 </r>
       <r>   -8.2192    1.0000 </r>
       <r>   -8.2012    1.0000 </r>
       <r>   -8.1505    1.0000 </r>
       <r>   -8.0863    1.0000 </r>
       <r>   -8.0862    1.0000 </r>
       <r>   -8.0642    1.0000 </r>
       <r>   -8.0640    1.0000 </r>
       <r>   -7.1981    1.0000 </r>
       <r>   -7.1975    1.0000 </r>
       <r>   -7.1843    1.0000 </r>
       <r>   -7.1213    1.0000 </r>
       <r>   -7.1207    1.0000 </r>
       <r>   -7.1185    1.0000 </r>
       <r>   -6.8485    1.0000 </r>
       <r>   -6.8481    1.0000 </r>
       <r>   -6.8469    1.0000 </r>
       <r>   -6.4290    1.0000 </r>
       <r>   -6.4285    1.0000 </r>
       <r>   -6.4254    1.0000 </r>
       <r>   -6.4252    1.0000 </r>
       <r>   -6.4022    1.0000 </r>
       <r>   -6.3961    1.0000 </r>
       <r>   -6.3750    1.0000 </r>
       <r>   -6.3410    1.0000 </r>
       <r>   -6.2439    1.0000 </r>
       <r>   -6.2436    1.0000 </r>
       <r>   -6.1932    1.0000 </r>
       <r>   -6.1930    1.0000 </r>
       <r>   -5.9572    1.0000 </r>
       <r>   -5.9563    1.0000 </r>
       <r>   -5.9317    1.0000 </r>
       <r>   -5.9308    1.0000 </r>
       <r>   -5.9191    1.0000 </r>
       <r>   -5.8967    1.0000 </r>
       <r>   -5.8961    1.0000 </r>
       <r>   -5.7685    1.0000 </r>
       <r>   -5.7476    1.0000 </r>
       <r>   -5.7470    1.0000 </r>
       <r>   -5.5552    1.0000 </r>
       <r>   -5.5552    1.0000 </r>
       <r>   -5.5540    1.0000 </r>
       <r>   -2.7473    0.0000 </r>
       <r>   -2.7471    0.0000 </r>
       <r>   -2.7396    0.0000 </r>
       <r>   -2.7395    0.0000 </r>
       <r>   -2.2869    0.0000 </r>
       <r>   -2.2866    0.0000 </r>
       <r>   -2.2858    0.0000 </r>
       <r>   -1.8854    0.0000 </r>
       <r>   -1.8810    0.0000 </r>
       <r>   -1.8803    0.0000 </r>
       <r>   -1.6058    0.0000 </r>
       <r>   -1.5914    0.0000 </r>
       <r>   -1.5431    0.0000 </r>
       <r>   -1.5390    0.0000 </r>
       <r>   -1.5384    0.0000 </r>
       <r>   -1.1304    0.0000 </r>
       <r>   -1.1300    0.0000 </r>
       <r>   -1.1194    0.0000 </r>
       <r>   -0.9995    0.0000 </r>
       <r>   -0.9990    0.0000 </r>
       <r>   -0.9858    0.0000 </r>
       <r>   -0.4313    0.0000 </r>
       <r>   -0.4307    0.0000 </r>
       <r>   -0.4187    0.0000 </r>
       <r>   -0.4008    0.0000 </r>
       <r>   -0.3518    0.0000 </r>
       <r>   -0.2426    0.0000 </r>
       <r>   -0.2422    0.0000 </r>
       <r>   -0.2304    0.0000 </r>
       <r>   -0.2299    0.0000 </r>
       <r>   -0.2227    0.0000 </r>
       <r>   -0.2222    0.0000 </r>
       <r>   -0.1074    0.0000 </r>
       <r>   -0.1067    0.0000 </r>
       <r>    0.0510    0.0000 </r>
       <r>    0.1088    0.0000 </r>
       <r>    0.1104    0.0000 </r>
       <r>    0.1396    0.0000 </r>
       <r>    0.1517    0.0000 </r>
       <r>    0.1522    0.0000 </r>
       <r>    0.2610    0.0000 </r>
       <r>    0.2616    0.0000 </r>
       <r>    0.2681    0.0000 </r>
       <r>    0.3159    0.0000 </r>
       <r>    0.3403    0.0000 </r>
       <r>    0.3410    0.0000 </r>
       <r>    0.3578    0.0000 </r>
       <r>    0.4643    0.0000 </r>
       <r>    0.4645    0.0000 </r>
       <r>    0.4653    0.0000 </r>
       <r>    0.4827    0.0000 </r>
       <r>    0.4845    0.0000 </r>
       <r>    0.5296    0.0000 </r>
       <r>    0.5298    0.0000 </r>
       <r>    0.5655    0.0000 </r>
       <r>    0.5686    0.0000 </r>
       <r>    0.5815    0.0000 </r>
       <r>    0.6134    0.0000 </r>
       <r>    0.6244    0.0000 </r>
       <r>    0.6517    0.0000 </r>
       <r>    0.6532    0.0000 </r>
       <r>    0.6851    0.0000 </r>
       <r>    0.6867    0.0000 </r>
       <r>    0.6880    0.0000 </r>
       <r>    0.7342    0.0000 </r>
       <r>    0.7388    0.0000 </r>
       <r>    0.7414    0.0000 </r>
       <r>    0.7438    0.0000 </r>
       <r>    0.7493    0.0000 </r>
       <r>    0.7502    0.0000 </r>
       <r>    0.8082    0.0000 </r>
       <r>    0.8090    0.0000 </r>
       <r>    0.8118    0.0000 </r>
       <r>    0.8392    0.0000 </r>
       <r>    0.8446    0.0000 </r>
       <r>    0.8652    0.0000 </r>
       <r>    0.8715    0.0000 </r>
      </set>
      <set comment="kpoint 2">
       <r>  -25.3617    1.0000 </r>
       <r>  -25.3612    1.0000 </r>
       <r>  -23.6769    1.0000 </r>
       <r>  -23.6769    1.0000 </r>
       <r>  -23.6756    1.0000 </r>
       <r>  -23.2288    1.0000 </r>
       <r>  -23.2287    1.0000 </r>
       <r>  -23.2274    1.0000 </r>
       <r>  -22.4445    1.0000 </r>
       <r>  -22.4440    1.0000 </r>
       <r>  -22.4432    1.0000 </r>
       <r>  -22.4430    1.0000 </r>
       <r>  -21.4745    1.0000 </r>
       <r>  -21.4544    1.0000 </r>
       <r>  -21.4090    1.0000 </r>
       <r>  -21.4087    1.0000 </r>
       <r>  -21.3882    1.0000 </r>
       <r>  -21.3878    1.0000 </r>
       <r>  -20.1176    1.0000 </r>
       <r>  -20.1170    1.0000 </r>
       <r>  -20.1156    1.0000 </r>
       <r>  -20.1150    1.0000 </r>
       <r>  -20.1054    1.0000 </r>
       <r>  -20.1045    1.0000 </r>
       <r>  -19.4468    1.0000 </r>
       <r>  -19.4463    1.0000 </r>
       <r>  -19.4441    1.0000 </r>
       <r>  -19.1640    1.0000 </r>
       <r>  -19.1635    1.0000 </r>
       <r>  -19.0621    1.0000 </r>
       <r>  -18.7925    1.0000 </r>
       <r>  -18.7922    1.0000 </r>
       <r>  -18.5436    1.0000 </r>
       <r>  -18.4957    1.0000 </r>
       <r>  -18.4952    1.0000 </r>
       <r>  -18.4944    1.0000 </r>
       <r>  -18.4942    1.0000 </r>
       <r>  -18.4536    1.0000 </r>
       <r>  -18.4533    1.0000 </r>
       <r>  -18.0608    1.0000 </r>
       <r>  -18.0603    1.0000 </r>
       <r>  -17.8333    1.0000 </r>
       <r>  -16.9844    1.0000 </r>
       <r>  -16.9840    1.0000 </r>
       <r>  -16.5848    1.0000 </r>
       <r>  -16.5832    1.0000 </r>
       <r>  -16.3395    1.0000 </r>
       <r>  -15.8977    1.0000 </r>
       <r>  -15.7938    1.0000 </r>
[...]
       <r>   -19.9310     0.0000    48.0000 </r>
       <r>   -19.8346     0.0000    48.0000 </r>
       <r>   -19.7383     0.0000    48.0000 </r>
       <r>   -19.6419     0.0000    48.0000 </r>
       <r>   -19.5456     0.0000    48.0000 </r>
       <r>   -19.4492    19.5318    49.8819 </r>
       <r>   -19.3529     0.0000    54.0000 </r>
       <r>   -19.2565     0.0000    54.0000 </r>
       <r>   -19.1602    18.0555    55.7397 </r>
       <r>   -19.0638    29.6690    59.7927 </r>
       <r>   -18.9675     0.0000    60.0000 </r>
       <r>   -18.8711     0.0000    60.0000 </r>
       <r>   -18.7747    25.4829    62.4553 </r>
       <r>   -18.6784    14.1445    64.0298 </r>
       <r>   -18.5820    11.8057    65.4379 </r>
       <r>   -18.4857    64.6915    71.8003 </r>
       <r>   -18.3893    53.2566    78.0000 </r>
       <r>   -18.2930     0.0000    78.0000 </r>
       <r>   -18.1966     0.0000    78.0000 </r>
       <r>   -18.1003     0.0000    78.0000 </r>
       <r>   -18.0039    29.9206    80.8829 </r>
       <r>   -17.9076    18.2766    82.7951 </r>
       <r>   -17.8112     9.6804    83.9998 </r>
       <r>   -17.7149     0.0000    84.0000 </r>
       <r>   -17.6185     0.0000    84.0000 </r>
       <r>   -17.5222     0.0000    84.0000 </r>
       <r>   -17.4258     0.0000    84.0000 </r>
       <r>   -17.3295     0.0000    84.0000 </r>
       <r>   -17.2331     0.0000    84.0000 </r>
       <r>   -17.1368     0.0000    84.0000 </r>
       <r>   -17.0404     0.0000    84.0000 </r>
       <r>   -16.9441    27.3425    86.6345 </r>
       <r>   -16.8477    10.2029    87.7499 </r>
       <r>   -16.7513    11.0766    88.9676 </r>
       <r>   -16.6550     3.9372    89.4461 </r>
       <r>   -16.5586    25.9373    91.9995 </r>
       <r>   -16.4623     0.0000    92.0000 </r>
       <r>   -16.3659     0.0002    92.0000 </r>
       <r>   -16.2696     5.5328    92.5331 </r>
       <r>   -16.1732     3.6169    92.9487 </r>
       <r>   -16.0769     9.6539    93.9636 </r>
       <r>   -15.9805     9.8330    95.0811 </r>
       <r>   -15.8842     8.2430    95.9943 </r>
       <r>   -15.7878    28.5547    98.7513 </r>
       <r>   -15.6915    32.1240   103.9962 </r>
       <r>   -15.5951     0.0000   104.0000 </r>
       <r>   -15.4988     0.0000   104.0000 </r>
       <r>   -15.4024     0.0034   104.0003 </r>
       <r>   -15.3061     7.3699   104.7104 </r>
       <r>   -15.2097    26.3821   107.3421 </r>
       <r>   -15.1134    19.4995   111.9792 </r>
       <r>   -15.0170    54.4685   117.2482 </r>
       <r>   -14.9207    25.2453   120.0000 </r>
       <r>   -14.8243    47.0868   124.5369 </r>
       <r>   -14.7279     6.6080   125.7037 </r>
       <r>   -14.6316    25.7516   128.2813 </r>
       <r>   -14.5352     4.7151   128.8211 </r>
       <r>   -14.4389    13.3209   130.2169 </r>
       <r>   -14.3425    13.5963   131.7774 </r>
       <r>   -14.2462     0.0000   132.0000 </r>
       <r>   -14.1498     0.0650   132.0063 </r>
       <r>   -14.0535    82.4717   139.9526 </r>
       <r>   -13.9571     0.0000   140.0000 </r>
       <r>   -13.8608     0.0000   140.0000 </r>
       <r>   -13.7644     0.0000   140.0000 </r>
       <r>   -13.6681     0.0000   140.0000 </r>
       <r>   -13.5717     0.0000   140.0000 </r>
       <r>   -13.4754     0.0000   140.0000 </r>
       <r>   -13.3790     0.0000   140.0000 </r>
       <r>   -13.2827    60.1023   145.7910 </r>
       <r>   -13.1863     0.0000   148.0000 </r>
       <r>   -13.0900     0.0000   148.0000 </r>
       <r>   -12.9936    57.7096   153.5605 </r>
       <r>   -12.8973     0.0000   154.0000 </r>
       <r>   -12.8009     0.0000   154.0000 </r>
       <r>   -12.7045     1.8096   154.1744 </r>
       <r>   -12.6082    12.9392   157.5473 </r>
       <r>   -12.5118    13.3781   159.0895 </r>
       <r>   -12.4155     5.4943   159.7295 </r>
       <r>   -12.3191    21.6719   162.0003 </r>
       <r>   -12.2228    62.2682   168.0000 </r>
       <r>   -12.1264     6.6130   168.6372 </r>
       <r>   -12.0301     8.5198   169.5543 </r>
       <r>   -11.9337    10.8972   170.7837 </r>
       <r>   -11.8374     5.3310   171.5471 </r>
       <r>   -11.7410     3.1105   172.0000 </r>
       <r>   -11.6447     0.0000   172.0000 </r>
       <r>   -11.5483     0.0001   172.0000 </r>
       <r>   -11.4520    33.1434   175.1935 </r>
       <r>   -11.3556    95.4116   185.0273 </r>
       <r>   -11.2593     0.0000   186.0000 </r>
       <r>   -11.1629    41.5143   190.0000 </r>
       <r>   -11.0666     5.1896   190.5000 </r>
       <r>   -10.9702    52.9171   198.0000 </r>
       <r>   -10.8739    41.5874   202.0070 </r>
       <r>   -10.7775    37.5807   206.0561 </r>
       <r>   -10.6811    33.7742   211.5216 </r>
       <r>   -10.5848    42.8663   216.1303 </r>
       <r>   -10.4884    29.0531   220.0000 </r>
       <r>   -10.3921     5.1775   220.4989 </r>
       <r>   -10.2957    21.7058   222.8917 </r>
       <r>   -10.1994    83.4991   231.1790 </r>
       <r>   -10.1030    78.5934   241.3771 </r>
       <r>   -10.0067     6.8655   242.6615 </r>
       <r>    -9.9103    10.9657   245.4900 </r>
       <r>    -9.8140    33.3157   249.1107 </r>
       <r>    -9.7176     0.0000   250.0000 </r>
       <r>    -9.6213     0.0000   250.0000 </r>
       <r>    -9.5249     0.0038   250.0004 </r>
       <r>    -9.4286    83.1651   258.0135 </r>
       <r>    -9.3322   145.0125   272.3062 </r>
       <r>    -9.2359     7.8346   273.6886 </r>
       <r>    -9.1395    27.0632   276.4079 </r>
       <r>    -9.0432     8.1406   277.2846 </r>
       <r>    -8.9468    18.0903   279.4101 </r>
       <r>    -8.8505    27.6711   286.0000 </r>
       <r>    -8.7541     0.0000   286.0000 </r>
       <r>    -8.6577     0.0000   286.0000 </r>
       <r>    -8.5614    41.5143   290.0000 </r>
       <r>    -8.4650    10.3497   290.9972 </r>
       <r>    -8.3687    44.7528   295.9795 </r>
       <r>    -8.2723    69.8119   302.7265 </r>
       <r>    -8.1760    77.9708   311.5482 </r>
       <r>    -8.0796    39.5226   316.9427 </r>
       <r>    -7.9833     0.0000   322.0000 </r>
       <r>    -7.8869     0.0000   322.0000 </r>
       <r>    -7.7906     0.0000   322.0000 </r>
       <r>    -7.6942     0.0000   322.0000 </r>
       <r>    -7.5979     0.0000   322.0000 </r>
       <r>    -7.5015     0.0000   322.0000 </r>
       <r>    -7.4052     0.0000   322.0000 </r>
       <r>    -7.3088     0.0000   322.0000 </r>
       <r>    -7.2125     0.5541   322.0534 </r>
       <r>    -7.1161    79.2390   332.2746 </r>
       <r>    -7.0198     0.0000   334.0000 </r>
       <r>    -6.9234     0.0000   334.0000 </r>
       <r>    -6.8271    62.1671   339.9900 </r>
       <r>    -6.7307     0.0000   340.0000 </r>
       <r>    -6.6343     0.0000   340.0000 </r>
       <r>    -6.5380     0.0000   340.0000 </r>
       <r>    -6.4416     2.1694   340.2090 </r>
       <r>    -6.3453   104.3718   355.4421 </r>
       <r>    -6.2489     6.1804   356.5955 </r>
       <r>    -6.1526    54.3015   364.0000 </r>
       <r>    -6.0562     0.0000   364.0000 </r>
       <r>    -5.9599     9.9497   364.9587 </r>
       <r>    -5.8635   103.7405   378.0000 </r>
       <r>    -5.7672     6.5903   378.6350 </r>
       <r>    -5.6708    28.2868   384.0000 </r>
       <r>    -5.5745     0.1733   384.0167 </r>
       <r>    -5.4781    62.0981   390.0000 </r>
       <r>    -5.3818     0.0000   390.0000 </r>
       <r>    -5.2854     0.0000   390.0000 </r>
       <r>    -5.1891     0.0000   390.0000 </r>
       <r>    -5.0927     0.0000   390.0000 </r>
       <r>    -4.9964     0.0000   390.0000 </r>
       <r>    -4.9000     0.0000   390.0000 </r>
       <r>    -4.8037     0.0000   390.0000 </r>
       <r>    -4.7073     0.0000   390.0000 </r>
       <r>    -4.6109     0.0000   390.0000 </r>
       <r>    -4.5146     0.0000   390.0000 </r>
       <r>    -4.4182     0.0000   390.0000 </r>
       <r>    -4.3219     0.0000   390.0000 </r>
       <r>    -4.2255     0.0000   390.0000 </r>
       <r>    -4.1292     0.0000   390.0000 </r>
       <r>    -4.0328     0.0000   390.0000 </r>
       <r>    -3.9365     0.0000   390.0000 </r>
       <r>    -3.8401     0.0000   390.0000 </r>
       <r>    -3.7438     0.0000   390.0000 </r>
       <r>    -3.6474     0.0000   390.0000 </r>
       <r>    -3.5511     0.0000   390.0000 </r>
       <r>    -3.4547     0.0000   390.0000 </r>
       <r>    -3.3584     0.0000   390.0000 </r>
       <r>    -3.2620     0.0000   390.0000 </r>
       <r>    -3.1657     0.0000   390.0000 </r>
       <r>    -3.0693     0.0000   390.0000 </r>
       <r>    -2.9730     0.0000   390.0000 </r>
       <r>    -2.8766     0.0000   390.0000 </r>
       <r>    -2.7803     0.0000   390.0000 </r>
       <r>    -2.6839    83.0285   398.0000 </r>
       <r>    -2.5875     0.0000   398.0000 </r>
       <r>    -2.4912     0.0000   398.0000 </r>
       <r>    -2.3948     0.0000   398.0000 </r>
       <r>    -2.2985     2.7764   398.2675 </r>
       <r>    -2.2021     0.0000   404.0000 </r>
       <r>    -2.1058     0.0000   404.0000 </r>
       <r>    -2.0094     0.0000   404.0000 </r>
       <r>    -1.9131     0.0007   404.0001 </r>
       <r>    -1.8167    62.2708   410.0000 </r>
       <r>    -1.7204     0.0000   410.0000 </r>
       <r>    -1.6240     0.0384   410.0037 </r>
       <r>    -1.5277   101.0428   419.7394 </r>
       <r>    -1.4313     0.0000   420.0000 </r>
       <r>    -1.3350     0.0000   420.0000 </r>
       <r>    -1.2386     0.0000   420.0000 </r>
       <r>    -1.1423     1.5840   420.1526 </r>
       <r>    -1.0459    22.4104   426.0000 </r>
       <r>    -0.9496    62.2714   432.0000 </r>
       <r>    -0.8532     0.0000   432.0000 </r>
       <r>    -0.7569     0.0000   432.0000 </r>
       <r>    -0.6605     0.0000   432.0000 </r>
       <r>    -0.5641     0.0000   432.0000 </r>
       <r>    -0.4678     0.0000   432.0000 </r>
       <r>    -0.3714    91.4753   440.8139 </r>
       <r>    -0.2751     3.7878   442.0000 </r>
       <r>    -0.1787   121.5666   453.7132 </r>
       <r>    -0.0824    37.6802   457.8310 </r>
       <r>     0.0140     0.0000   458.0000 </r>
       <r>     0.1103    59.8706   463.7687 </r>
       <r>     0.2067    61.5347   469.9290 </r>
       <r>     0.3030    59.0253   475.6872 </r>
       <r>     0.3994    77.8631   484.5398 </r>
       <r>     0.4957    89.8770   494.2281 </r>
       <r>     0.5921    90.2125   503.2928 </r>
       <r>     0.6884   100.8770   514.3879 </r>
       <r>     0.7848   135.4955   529.2922 </r>
       <r>     0.8811   109.7757   542.7143 </r>
       <r>     0.9775     7.9490   544.0000 </r>
       <r>     1.0738     0.0000   544.0000 </r>
       <r>     1.1702     0.0000   544.0000 </r>
       <r>     1.2665     0.0000   544.0000 </r>
       <r>     1.3629     0.0000   544.0000 </r>
       <r>     1.4592     0.0000   544.0000 </r>
       <r>     1.5556     0.0000   544.0000 </r>
       <r>     1.6520     0.0000   544.0000 </r>
       <r>     1.7483     0.0000   544.0000 </r>
       <r>     1.8447     0.0000   544.0000 </r>
       <r>     1.9410     0.0000   544.0000 </r>
       <r>     2.0374     0.0000   544.0000 </r>
       <r>     2.1337     0.0000   544.0000 </r>
       <r>     2.2301     0.0000   544.0000 </r>
      </set>
     </set>
    </array>
   </total>
  </dos>
 </calculation>
 <structure name="finalpos" >
  <crystal>
   <varray name="basis" >
    <v>      36.72801074       0.00000000       0.00000000 </v>
    <v>     -18.36400537      31.80739033       0.00000000 </v>
    <v>       0.00000000       0.00000000      20.00000000 </v>
   </varray>
   <i name="volume">  23364.44347434 </i>
   <varray name="rec_basis" >
    <v>       0.02722718       0.01571962       0.00000000 </v>
    <v>       0.00000000       0.03143923       0.00000000 </v>
    <v>       0.00000000       0.00000000       0.05000000 </v>
   </varray>
  </crystal>
  <varray name="positions" >
   <v>       0.35399190       0.70798380       0.50312184 </v>
   <v>       0.35399190       0.64600810       0.50312184 </v>
   <v>       0.29201620       0.64600810       0.50312184 </v>
   <v>       0.37725308       0.62274692       0.50284866 </v>
   <v>       0.42141468       0.64451002       0.50262390 </v>
   <v>       0.44325633       0.62258554       0.50176756 </v>
   <v>       0.42157087       0.57842913       0.50102989 </v>
   <v>       0.37741446       0.55674367       0.50176756 </v>
   <v>       0.35548998       0.57858532       0.50262390 </v>
   <v>       0.37725308       0.75450616       0.50284866 </v>
   <v>       0.42141468       0.77690466       0.50262390 </v>
   <v>       0.44325633       0.82067079       0.50176756 </v>
   <v>       0.42157087       0.84314174       0.50102989 </v>
   <v>       0.37741446       0.82067079       0.50176756 </v>
   <v>       0.35548998       0.77690466       0.50262390 </v>
   <v>       0.24549384       0.62274692       0.50284866 </v>
   <v>       0.22309534       0.64451002       0.50262390 </v>
   <v>       0.17932921       0.62258554       0.50176756 </v>
   <v>       0.15685826       0.57842913       0.50102989 </v>
   <v>       0.17932921       0.55674367       0.50176756 </v>
   <v>       0.22309534       0.57858532       0.50262390 </v>
   <v>       0.64600671       0.29201341       0.50013956 </v>
   <v>       0.64600671       0.35399329       0.50013956 </v>
   <v>       0.70798659       0.35399329       0.50013956 </v>
   <v>       0.62274271       0.37725729       0.50072193 </v>
   <v>       0.57857970       0.35550012       0.50123427 </v>
   <v>       0.55674141       0.37742361       0.50257043 </v>
   <v>       0.57842155       0.42157845       0.50351071 </v>
   <v>       0.62257639       0.44325859       0.50257043 </v>
   <v>       0.64449988       0.42142030       0.50123427 </v>
   <v>       0.62274271       0.24548542       0.50072193 </v>
   <v>       0.57857970       0.22307958       0.50123427 </v>
   <v>       0.55674141       0.17931780       0.50257043 </v>
   <v>       0.57842155       0.15684310       0.50351071 </v>
   <v>       0.62257639       0.17931780       0.50257043 </v>
   <v>       0.64449988       0.22307958       0.50123427 </v>
   <v>       0.75451458       0.37725729       0.50072193 </v>
   <v>       0.77692042       0.35550012       0.50123427 </v>
   <v>       0.82068220       0.37742361       0.50257043 </v>
   <v>       0.84315690       0.42157845       0.50351071 </v>
   <v>       0.82068220       0.44325859       0.50257043 </v>
   <v>       0.77692042       0.42142030       0.50123427 </v>
   <v>       0.45686639       0.54313361       0.55817742 </v>
   <v>       0.51165945       0.48834055       0.50428806 </v>
   <v>       0.52219820       0.47780180       0.56596894 </v>
   <v>       0.54405875       0.45594125       0.56648345 </v>
   <v>       0.55508187       0.44491813       0.50578271 </v>
   <v>       0.45686639       0.91373277       0.55817742 </v>
   <v>       0.51165945       0.02331890       0.50428806 </v>
   <v>       0.52219820       0.04439640       0.56596894 </v>
   <v>       0.54405875       0.08811750       0.56648345 </v>
   <v>       0.55508187       0.11016373       0.50578271 </v>
   <v>       0.08626723       0.54313361       0.55817742 </v>
   <v>       0.97668110       0.48834055       0.50428806 </v>
   <v>       0.95560360       0.47780180       0.56596894 </v>
   <v>       0.91188250       0.45594125       0.56648345 </v>
   <v>       0.88983627       0.44491813       0.50578271 </v>
   <v>       0.44491082       0.55508918       0.49909788 </v>
   <v>       0.45598888       0.54401112       0.43850529 </v>
   <v>       0.47784279       0.52215721       0.43930587 </v>
   <v>       0.48831452       0.51168548       0.50112797 </v>
   <v>       0.54305798       0.45694202       0.44685857 </v>
   <v>       0.44491082       0.88982164       0.49909788 </v>
   <v>       0.45598888       0.91197775       0.43850529 </v>
   <v>       0.47784279       0.95568558       0.43930587 </v>
   <v>       0.48831452       0.97662905       0.50112797 </v>
   <v>       0.54305798       0.08611596       0.44685857 </v>
   <v>       0.11017836       0.55508918       0.49909788 </v>
   <v>       0.08802225       0.54401112       0.43850529 </v>
   <v>       0.04431442       0.52215721       0.43930587 </v>
   <v>       0.02337095       0.51168548       0.50112797 </v>
   <v>       0.91388404       0.45694202       0.44685857 </v>
   <v>       0.37652719       0.68826360       0.50312025 </v>
   <v>       0.31173640       0.62347281       0.50312025 </v>
   <v>       0.31173640       0.68826360       0.50312025 </v>
   <v>       0.62346178       0.31173089       0.50009074 </v>
   <v>       0.68826911       0.37653822       0.50009074 </v>
   <v>       0.68826911       0.31173089       0.50009074 </v>
   <v>       0.47785840       0.52214160       0.55977975 </v>
   <v>       0.47785840       0.95571681       0.55977975 </v>
   <v>       0.04428319       0.52214160       0.55977975 </v>
   <v>       0.52207184       0.47792816       0.44558808 </v>
   <v>       0.52207184       0.04414368       0.44558808 </v>
   <v>       0.95585632       0.47792816       0.44558808 </v>
   <v>       0.47756682       0.83788468       0.50145317 </v>
   <v>       0.43816888       0.75940893       0.50298493 </v>
   <v>       0.36031785       0.83788468       0.50145317 </v>
   <v>       0.32124005       0.75940893       0.50298493 </v>
   <v>       0.24059107       0.67875995       0.50298493 </v>
   <v>       0.16211532       0.63968215       0.50145317 </v>
   <v>       0.24059107       0.56183112       0.50298493 </v>
   <v>       0.16211532       0.52243318       0.50145317 </v>
   <v>       0.32124005       0.56183112       0.50298493 </v>
   <v>       0.36031785       0.52243318       0.50145317 </v>
   <v>       0.47756682       0.63968215       0.50145317 </v>
   <v>       0.43816888       0.67875995       0.50298493 </v>
   <v>       0.52243524       0.16212025       0.50309342 </v>
   <v>       0.56182241       0.24057286       0.50074735 </v>
   <v>       0.63968501       0.16212025       0.50309342 </v>
   <v>       0.67875045       0.24057286       0.50074735 </v>
   <v>       0.75942714       0.32124955       0.50074735 </v>
   <v>       0.83787975       0.36031499       0.50309342 </v>
   <v>       0.75942714       0.43817759       0.50074735 </v>
   <v>       0.83787975       0.47756476       0.50309342 </v>
   <v>       0.67875045       0.43817759       0.50074735 </v>
   <v>       0.63968501       0.47756476       0.50309342 </v>
   <v>       0.52243524       0.36031499       0.50309342 </v>
   <v>       0.56182241       0.32124955       0.50074735 </v>
   <v>       0.51302488       0.48697512       0.61194178 </v>
   <v>       0.55269469       0.44730531       0.61364690 </v>
   <v>       0.44888234       0.55111766       0.60664307 </v>
   <v>       0.51302488       0.02604977       0.61194178 </v>
   <v>       0.55269469       0.10538938       0.61364690 </v>
   <v>       0.44888234       0.89776468       0.60664307 </v>
   <v>       0.97395023       0.48697512       0.61194178 </v>
   <v>       0.89461062       0.44730531       0.61364690 </v>
   <v>       0.10223532       0.55111766       0.60664307 </v>
   <v>       0.55096552       0.44903448       0.39826868 </v>
   <v>       0.44740524       0.55259476       0.39123826 </v>
   <v>       0.48707401       0.51292599       0.39344901 </v>
   <v>       0.55096552       0.10193104       0.39826868 </v>
   <v>       0.44740524       0.89481049       0.39123826 </v>
   <v>       0.48707401       0.97414802       0.39344901 </v>
   <v>       0.89806896       0.44903448       0.39826868 </v>
   <v>       0.10518951       0.55259476       0.39123826 </v>
   <v>       0.02585198       0.51292599       0.39344901 </v>
  </varray>
 </structure>
</modeling>
