<?xml version="1.0" encoding="ISO-8859-1"?>
<modeling>
 <generator>
  <i name="program" type="string">vasp </i>
  <i name="version" type="string">5.4.4.18Apr17-6-g9f103f2a35  </i>
  <i name="subversion" type="string">(build Jun 07 2020 16:50:00) complex            parallel </i>
  <i name="platform" type="string">LinuxIFC </i>
  <i name="date" type="string">2023 02 14 </i>
  <i name="time" type="string">22:33:53 </i>
 </generator>
 <incar>
  <i type="string" name="SYSTEM">Simulation for cell shape cell volume r</i>
  <i type="int" name="ISTART">     1</i>
  <i type="string" name="PREC">high</i>
  <i type="string" name="ALGO">48</i>
  <i type="int" name="ICHARG">    11</i>
  <i type="int" name="NELM">   200</i>
  <i type="int" name="IBRION">    -1</i>
  <i name="EDIFF">      0.00001000</i>
  <i name="EDIFFG">     -0.01000000</i>
  <i type="int" name="NSW">     0</i>
  <i type="int" name="ISIF">     2</i>
  <i name="ENCUT">    500.00000000</i>
  <i name="POTIM">      0.30000000</i>
  <i type="string" name="LREAL">A</i>
  <i type="int" name="ISMEAR">     0</i>
  <i name="SIGMA">      0.01000000</i>
  <i type="int" name="NWRITE">     0</i>
  <i type="logical" name="LWAVE"> F  </i>
  <i type="logical" name="LCHARG"> F  </i>
  <v type="int" name="KPOINT_BSE">    -1     0     0     0</v>
  <i type="int" name="NELM">   200</i>
  <i type="string" name="GGA">PE</i>
 </incar>
 <structure name="primitive_cell" >
  <crystal>
   <varray name="basis" >
    <v>      36.62738140       0.00000000       0.00000000 </v>
    <v>     -18.31369070      31.72024277       0.00000000 </v>
    <v>       0.00000000       0.00000000      20.00000000 </v>
   </varray>
   <i name="volume">  23236.58859872 </i>
   <varray name="rec_basis" >
    <v>       0.02730198       0.01576280       0.00000000 </v>
    <v>       0.00000000       0.03152561       0.00000000 </v>
    <v>       0.00000000       0.00000000       0.05000000 </v>
   </varray>
  </crystal>
  <varray name="positions" >
   <v>       0.37664575      -0.31167712       0.49986082 </v>
   <v>       0.35404566      -0.29190867       0.49992054 </v>
   <v>       0.35404566      -0.35404566       0.49992054 </v>
   <v>       0.31167712      -0.37664575       0.49986082 </v>
   <v>       0.31167712      -0.31167712       0.49986082 </v>
   <v>       0.37737968      -0.24524065      -0.49959593 </v>
   <v>       0.37737968      -0.37737968      -0.49959593 </v>
   <v>       0.43847826      -0.24030795      -0.49952928 </v>
   <v>       0.43847826      -0.32121379      -0.49952928 </v>
   <v>       0.29190867      -0.35404566       0.49992054 </v>
   <v>       0.42165872      -0.22278735      -0.49919395 </v>
   <v>       0.42165872      -0.35555393      -0.49919395 </v>
   <v>       0.35555393      -0.22278735      -0.49919395 </v>
   <v>       0.35555393      -0.42165872      -0.49919395 </v>
   <v>       0.32121379      -0.24030795      -0.49952928 </v>
   <v>       0.32121379      -0.43847826      -0.49952928 </v>
   <v>       0.24524065      -0.37737968      -0.49959593 </v>
   <v>       0.44357701      -0.17890239      -0.49822995 </v>
   <v>       0.44357701      -0.37752061      -0.49822995 </v>
   <v>       0.24030795      -0.32121379      -0.49952928 </v>
   <v>       0.24030795      -0.43847826      -0.49952928 </v>
   <v>       0.37752061      -0.17890239      -0.49822995 </v>
   <v>       0.37752061      -0.44357701      -0.49822995 </v>
   <v>       0.47797644      -0.16167447      -0.49787237 </v>
   <v>       0.47797644      -0.36034909      -0.49787237 </v>
   <v>       0.22278735      -0.35555393      -0.49919395 </v>
   <v>       0.22278735      -0.42165872      -0.49919395 </v>
   <v>       0.42177928      -0.15644143      -0.49754049 </v>
   <v>       0.42177928      -0.42177928      -0.49754049 </v>
   <v>       0.36034909      -0.16167447      -0.49787237 </v>
   <v>       0.36034909      -0.47797644      -0.49787237 </v>
   <v>       0.17890239      -0.37752061      -0.49822995 </v>
   <v>       0.17890239      -0.44357701      -0.49822995 </v>
   <v>       0.44520581      -0.10958839      -0.49687372 </v>
   <v>       0.44520581      -0.44520581      -0.49687372 </v>
   <v>       0.15644143      -0.42177928      -0.49754049 </v>
   <v>       0.44789336      -0.10421329       0.39481492 </v>
   <v>       0.44789336      -0.44789336       0.39481492 </v>
   <v>       0.44915108      -0.10169785      -0.38895284 </v>
   <v>       0.44915108      -0.44915108      -0.38895284 </v>
   <v>       0.16167447      -0.36034909      -0.49787237 </v>
   <v>       0.16167447      -0.47797644      -0.49787237 </v>
   <v>       0.45667281      -0.08665439       0.44193826 </v>
   <v>       0.45667281      -0.45667281       0.44193826 </v>
   <v>       0.45669398      -0.08661204      -0.43800355 </v>
   <v>       0.45669398      -0.45669398      -0.43800355 </v>
   <v>       0.10958839      -0.44520581      -0.49687372 </v>
   <v>       0.47750426      -0.04499149       0.43688288 </v>
   <v>       0.47750426      -0.47750426       0.43688288 </v>
   <v>       0.47890026      -0.04219948      -0.44143683 </v>
   <v>       0.47890026      -0.47890026      -0.44143683 </v>
   <v>       0.10421329      -0.44789336       0.39481492 </v>
   <v>       0.10169785      -0.44915108      -0.38895284 </v>
   <v>       0.48866595      -0.02266809       0.49457457 </v>
   <v>       0.48866595      -0.48866595       0.49457457 </v>
   <v>       0.08665439      -0.45667281       0.44193826 </v>
   <v>       0.08661204      -0.45669398      -0.43800355 </v>
   <v>       0.48985998      -0.02028004      -0.38124125 </v>
   <v>       0.48985998      -0.48985998      -0.38124125 </v>
   <v>       0.04499149      -0.47750426       0.43688288 </v>
   <v>       0.04219948      -0.47890026      -0.44143683 </v>
   <v>      -0.48864854       0.02270293       0.49454474 </v>
   <v>      -0.48864854       0.48864854       0.49454474 </v>
   <v>      -0.48981483       0.02037034      -0.38126234 </v>
   <v>      -0.48981483       0.48981483      -0.38126234 </v>
   <v>       0.02266809      -0.48866595       0.49457457 </v>
   <v>      -0.47886805       0.04226391      -0.44149184 </v>
   <v>      -0.47886805       0.47886805      -0.44149184 </v>
   <v>      -0.47750592       0.04498815       0.43681388 </v>
   <v>      -0.47750592       0.47750592       0.43681388 </v>
   <v>       0.02028004      -0.48985998      -0.38124125 </v>
   <v>      -0.02270293       0.48864854       0.49454474 </v>
   <v>      -0.45667168       0.08665664       0.44179542 </v>
   <v>      -0.45667168       0.45667168       0.44179542 </v>
   <v>      -0.45666194       0.08667612      -0.43814786 </v>
   <v>      -0.45666194       0.45666194      -0.43814786 </v>
   <v>      -0.02037034       0.48981483      -0.38126234 </v>
   <v>      -0.04226391       0.47886805      -0.44149184 </v>
   <v>      -0.44910244       0.10179513      -0.38913561 </v>
   <v>      -0.44910244       0.44910244      -0.38913561 </v>
   <v>      -0.44789935       0.44789935       0.39465474 </v>
   <v>      -0.44789935       0.10420131       0.39465474 </v>
   <v>      -0.44519093       0.10961815      -0.49704545 </v>
   <v>      -0.44519093       0.44519093      -0.49704545 </v>
   <v>      -0.04498815       0.47750592       0.43681388 </v>
   <v>      -0.08665664       0.45667168       0.44179542 </v>
   <v>      -0.08667612       0.45666194      -0.43814786 </v>
   <v>      -0.42176815       0.15646370      -0.49771744 </v>
   <v>      -0.42176815       0.42176815      -0.49771744 </v>
   <v>      -0.36034015       0.16168959      -0.49802446 </v>
   <v>      -0.36034015       0.47797026      -0.49802446 </v>
   <v>      -0.10179513       0.44910244      -0.38913561 </v>
   <v>      -0.47797026       0.16168959      -0.49802446 </v>
   <v>      -0.47797026       0.36034015      -0.49802446 </v>
   <v>      -0.10420131       0.44789935       0.39465474 </v>
   <v>      -0.10961815       0.44519093      -0.49704545 </v>
   <v>      -0.37751018       0.17891902      -0.49839220 </v>
   <v>      -0.37751018       0.44357080      -0.49839220 </v>
   <v>      -0.44357080       0.17891902      -0.49839220 </v>
   <v>      -0.44357080       0.37751018      -0.49839220 </v>
   <v>      -0.15646370       0.42176815      -0.49771744 </v>
   <v>      -0.35554434       0.22280273      -0.49931554 </v>
   <v>      -0.35554434       0.42165293      -0.49931554 </v>
   <v>      -0.42165293       0.22280273      -0.49931554 </v>
   <v>      -0.42165293       0.35554434      -0.49931554 </v>
   <v>      -0.16168959       0.47797026      -0.49802446 </v>
   <v>      -0.16168959       0.36034015      -0.49802446 </v>
   <v>      -0.32120410       0.24032900      -0.49963669 </v>
   <v>      -0.32120410       0.43846690      -0.49963669 </v>
   <v>      -0.17891902       0.44357080      -0.49839220 </v>
   <v>      -0.17891902       0.37751018      -0.49839220 </v>
   <v>      -0.37737508       0.24524983      -0.49970286 </v>
   <v>      -0.37737508       0.37737508      -0.49970286 </v>
   <v>      -0.43846690       0.24032900      -0.49963669 </v>
   <v>      -0.43846690       0.32120410      -0.49963669 </v>
   <v>      -0.22280273       0.42165293      -0.49931554 </v>
   <v>      -0.22280273       0.35554434      -0.49931554 </v>
   <v>      -0.35404449       0.29191103       0.49982085 </v>
   <v>      -0.35404449       0.35404449       0.49982085 </v>
   <v>      -0.24032900       0.43846690      -0.49963669 </v>
   <v>      -0.24032900       0.32120410      -0.49963669 </v>
   <v>      -0.24524983       0.37737508      -0.49970286 </v>
   <v>      -0.31167336       0.31167336       0.49979654 </v>
   <v>      -0.31167336       0.37665328       0.49979654 </v>
   <v>      -0.37665328       0.31167336       0.49979654 </v>
   <v>      -0.29191103       0.35404449       0.49982085 </v>
  </varray>
 </structure>
 <varray name="primitive_index" >
  <v type="int" >        1 </v>
  <v type="int" >       19 </v>
  <v type="int" >       20 </v>
  <v type="int" >        2 </v>
  <v type="int" >        3 </v>
  <v type="int" >       28 </v>
  <v type="int" >       22 </v>
  <v type="int" >       92 </v>
  <v type="int" >      102 </v>
  <v type="int" >       21 </v>
  <v type="int" >       29 </v>
  <v type="int" >       23 </v>
  <v type="int" >       33 </v>
  <v type="int" >       27 </v>
  <v type="int" >       94 </v>
  <v type="int" >       99 </v>
  <v type="int" >       34 </v>
  <v type="int" >       30 </v>
  <v type="int" >       24 </v>
  <v type="int" >       95 </v>
  <v type="int" >       97 </v>
  <v type="int" >       32 </v>
  <v type="int" >       26 </v>
  <v type="int" >       91 </v>
  <v type="int" >      101 </v>
  <v type="int" >       35 </v>
  <v type="int" >       39 </v>
  <v type="int" >       31 </v>
  <v type="int" >       25 </v>
  <v type="int" >       93 </v>
  <v type="int" >      100 </v>
  <v type="int" >       36 </v>
  <v type="int" >       38 </v>
  <v type="int" >       68 </v>
  <v type="int" >       63 </v>
  <v type="int" >       37 </v>
  <v type="int" >      124 </v>
  <v type="int" >      122 </v>
  <v type="int" >      118 </v>
  <v type="int" >      116 </v>
  <v type="int" >       96 </v>
  <v type="int" >       98 </v>
  <v type="int" >       85 </v>
  <v type="int" >       80 </v>
  <v type="int" >       69 </v>
  <v type="int" >       64 </v>
  <v type="int" >       73 </v>
  <v type="int" >       16 </v>
  <v type="int" >       14 </v>
  <v type="int" >       70 </v>
  <v type="int" >       65 </v>
  <v type="int" >      126 </v>
  <v type="int" >      120 </v>
  <v type="int" >       84 </v>
  <v type="int" >       79 </v>
  <v type="int" >       90 </v>
  <v type="int" >       74 </v>
  <v type="int" >        9 </v>
  <v type="int" >        7 </v>
  <v type="int" >       18 </v>
  <v type="int" >       75 </v>
  <v type="int" >       83 </v>
  <v type="int" >       78 </v>
  <v type="int" >       10 </v>
  <v type="int" >        8 </v>
  <v type="int" >       89 </v>
  <v type="int" >       66 </v>
  <v type="int" >       61 </v>
  <v type="int" >       15 </v>
  <v type="int" >       13 </v>
  <v type="int" >       11 </v>
  <v type="int" >       88 </v>
  <v type="int" >       82 </v>
  <v type="int" >       77 </v>
  <v type="int" >       67 </v>
  <v type="int" >       62 </v>
  <v type="int" >       12 </v>
  <v type="int" >       71 </v>
  <v type="int" >      117 </v>
  <v type="int" >      115 </v>
  <v type="int" >      121 </v>
  <v type="int" >      123 </v>
  <v type="int" >       81 </v>
  <v type="int" >       76 </v>
  <v type="int" >       17 </v>
  <v type="int" >       87 </v>
  <v type="int" >       72 </v>
  <v type="int" >       52 </v>
  <v type="int" >       46 </v>
  <v type="int" >      105 </v>
  <v type="int" >      112 </v>
  <v type="int" >      119 </v>
  <v type="int" >      103 </v>
  <v type="int" >      113 </v>
  <v type="int" >      125 </v>
  <v type="int" >       86 </v>
  <v type="int" >       53 </v>
  <v type="int" >       47 </v>
  <v type="int" >       51 </v>
  <v type="int" >       45 </v>
  <v type="int" >       58 </v>
  <v type="int" >       54 </v>
  <v type="int" >       48 </v>
  <v type="int" >       50 </v>
  <v type="int" >       44 </v>
  <v type="int" >      110 </v>
  <v type="int" >      108 </v>
  <v type="int" >      106 </v>
  <v type="int" >      111 </v>
  <v type="int" >       59 </v>
  <v type="int" >       57 </v>
  <v type="int" >       49 </v>
  <v type="int" >       43 </v>
  <v type="int" >      104 </v>
  <v type="int" >      114 </v>
  <v type="int" >       60 </v>
  <v type="int" >       56 </v>
  <v type="int" >       40 </v>
  <v type="int" >       41 </v>
  <v type="int" >      109 </v>
  <v type="int" >      107 </v>
  <v type="int" >       55 </v>
  <v type="int" >        6 </v>
  <v type="int" >        5 </v>
  <v type="int" >        4 </v>
  <v type="int" >       42 </v>
 </varray>
 <kpoints>
  <generation param="listgenerated">
   <i name="divisions" type="int">      20 </i>
   <v>       0.00000000       0.00000000       0.00000000 </v>
   <v>       0.50000000       0.00000000       0.00000000 </v>
   <v>       0.33333333       0.33333333       0.00000000 </v>
   <v>       0.00000000       0.00000000       0.00000000 </v>
  </generation>
  <varray name="kpointlist" >
   <v>       0.00000000       0.00000000       0.00000000 </v>
   <v>       0.02631579       0.00000000       0.00000000 </v>
   <v>       0.05263158       0.00000000       0.00000000 </v>
   <v>       0.07894737       0.00000000       0.00000000 </v>
   <v>       0.10526316       0.00000000       0.00000000 </v>
   <v>       0.13157895       0.00000000       0.00000000 </v>
   <v>       0.15789474       0.00000000       0.00000000 </v>
   <v>       0.18421053       0.00000000       0.00000000 </v>
   <v>       0.21052632       0.00000000       0.00000000 </v>
   <v>       0.23684211       0.00000000       0.00000000 </v>
   <v>       0.26315789       0.00000000       0.00000000 </v>
   <v>       0.28947368       0.00000000       0.00000000 </v>
   <v>       0.31578947       0.00000000       0.00000000 </v>
   <v>       0.34210526       0.00000000       0.00000000 </v>
   <v>       0.36842105       0.00000000       0.00000000 </v>
   <v>       0.39473684       0.00000000       0.00000000 </v>
   <v>       0.42105263       0.00000000       0.00000000 </v>
   <v>       0.44736842       0.00000000       0.00000000 </v>
   <v>       0.47368421       0.00000000       0.00000000 </v>
   <v>       0.50000000       0.00000000       0.00000000 </v>
   <v>       0.50000000       0.00000000       0.00000000 </v>
   <v>       0.49122807       0.01754386       0.00000000 </v>
   <v>       0.48245614       0.03508772       0.00000000 </v>
   <v>       0.47368421       0.05263158       0.00000000 </v>
   <v>       0.46491228       0.07017544       0.00000000 </v>
   <v>       0.45614035       0.08771930       0.00000000 </v>
   <v>       0.44736842       0.10526316       0.00000000 </v>
   <v>       0.43859649       0.12280702       0.00000000 </v>
   <v>       0.42982456       0.14035088       0.00000000 </v>
   <v>       0.42105263       0.15789474       0.00000000 </v>
   <v>       0.41228070       0.17543860       0.00000000 </v>
   <v>       0.40350877       0.19298246       0.00000000 </v>
   <v>       0.39473684       0.21052632       0.00000000 </v>
   <v>       0.38596491       0.22807018       0.00000000 </v>
   <v>       0.37719298       0.24561404       0.00000000 </v>
   <v>       0.36842105       0.26315789       0.00000000 </v>
   <v>       0.35964912       0.28070175       0.00000000 </v>
   <v>       0.35087719       0.29824561       0.00000000 </v>
   <v>       0.34210526       0.31578947       0.00000000 </v>
   <v>       0.33333333       0.33333333       0.00000000 </v>
   <v>       0.33333333       0.33333333       0.00000000 </v>
   <v>       0.31578947       0.31578947       0.00000000 </v>
   <v>       0.29824561       0.29824561       0.00000000 </v>
   <v>       0.28070175       0.28070175       0.00000000 </v>
   <v>       0.26315789       0.26315789       0.00000000 </v>
   <v>       0.24561404       0.24561404       0.00000000 </v>
   <v>       0.22807018       0.22807018       0.00000000 </v>
   <v>       0.21052632       0.21052632       0.00000000 </v>
   <v>       0.19298246       0.19298246       0.00000000 </v>
   <v>       0.17543860       0.17543860       0.00000000 </v>
   <v>       0.15789474       0.15789474       0.00000000 </v>
   <v>       0.14035088       0.14035088       0.00000000 </v>
   <v>       0.12280702       0.12280702       0.00000000 </v>
   <v>       0.10526316       0.10526316       0.00000000 </v>
   <v>       0.08771930       0.08771930       0.00000000 </v>
   <v>       0.07017544       0.07017544       0.00000000 </v>
   <v>       0.05263158       0.05263158       0.00000000 </v>
   <v>       0.03508772       0.03508772       0.00000000 </v>
   <v>       0.01754386       0.01754386       0.00000000 </v>
   <v>       0.00000000       0.00000000       0.00000000 </v>
  </varray>
  <varray name="weights" >
   <v>       0.01666667 </v>
   <v>       0.01666667 </v>
   <v>       0.01666667 </v>
   <v>       0.01666667 </v>
   <v>       0.01666667 </v>
   <v>       0.01666667 </v>
   <v>       0.01666667 </v>
   <v>       0.01666667 </v>
   <v>       0.01666667 </v>
   <v>       0.01666667 </v>
   <v>       0.01666667 </v>
   <v>       0.01666667 </v>
   <v>       0.01666667 </v>
   <v>       0.01666667 </v>
   <v>       0.01666667 </v>
   <v>       0.01666667 </v>
   <v>       0.01666667 </v>
   <v>       0.01666667 </v>
   <v>       0.01666667 </v>
   <v>       0.01666667 </v>
   <v>       0.01666667 </v>
   <v>       0.01666667 </v>
   <v>       0.01666667 </v>
   <v>       0.01666667 </v>
   <v>       0.01666667 </v>
   <v>       0.01666667 </v>
   <v>       0.01666667 </v>
   <v>       0.01666667 </v>
   <v>       0.01666667 </v>
   <v>       0.01666667 </v>
   <v>       0.01666667 </v>
   <v>       0.01666667 </v>
   <v>       0.01666667 </v>
   <v>       0.01666667 </v>
   <v>       0.01666667 </v>
   <v>       0.01666667 </v>
   <v>       0.01666667 </v>
   <v>       0.01666667 </v>
   <v>       0.01666667 </v>
   <v>       0.01666667 </v>
   <v>       0.01666667 </v>
   <v>       0.01666667 </v>
   <v>       0.01666667 </v>
   <v>       0.01666667 </v>
   <v>       0.01666667 </v>
   <v>       0.01666667 </v>
   <v>       0.01666667 </v>
   <v>       0.01666667 </v>
   <v>       0.01666667 </v>
   <v>       0.01666667 </v>
   <v>       0.01666667 </v>
   <v>       0.01666667 </v>
   <v>       0.01666667 </v>
   <v>       0.01666667 </v>
   <v>       0.01666667 </v>
   <v>       0.01666667 </v>
   <v>       0.01666667 </v>
   <v>       0.01666667 </v>
   <v>       0.01666667 </v>
   <v>       0.01666667 </v>
  </varray>
 </kpoints>
 <parameters>
  <separator name="general" >
   <i type="string" name="SYSTEM">Simulation for cell shape cell volume r</i>
   <i type="logical" name="LCOMPAT"> F  </i>
  </separator>
  <separator name="electronic" >
   <i type="string" name="PREC">high</i>
   <i name="ENMAX">    500.00000000</i>
   <i name="ENAUG">    644.87300000</i>
   <i name="EDIFF">      0.00001000</i>
   <i type="int" name="IALGO">    38</i>
   <i type="int" name="IWAVPR">    10</i>
   <i type="int" name="NBANDS">   272</i>
   <i name="NELECT">    414.00000000</i>
   <i type="int" name="TURBO">     0</i>
   <i type="int" name="IRESTART">     0</i>
   <i type="int" name="NREBOOT">     0</i>
   <i type="int" name="NMIN">     0</i>
   <i name="EREF">      0.00000000</i>
   <separator name="electronic smearing" >
    <i type="int" name="ISMEAR">     0</i>
    <i name="SIGMA">      0.01000000</i>
    <i name="KSPACING">      0.50000000</i>
    <i type="logical" name="KGAMMA"> T  </i>
   </separator>
   <separator name="electronic projectors" >
    <i type="logical" name="LREAL"> T  </i>
    <v name="ROPT">     -0.00040000     -0.00040000     -0.00040000</v>
    <i type="int" name="LMAXPAW">  -100</i>
    <i type="int" name="LMAXMIX">     2</i>
    <i type="logical" name="NLSPLINE"> F  </i>
   </separator>
   <separator name="electronic startup" >
    <i type="int" name="ISTART">     1</i>
    <i type="int" name="ICHARG">    11</i>
    <i type="int" name="INIWAV">     1</i>
   </separator>
   <separator name="electronic spin" >
    <i type="int" name="ISPIN">     1</i>
    <i type="logical" name="LNONCOLLINEAR"> F  </i>
    <v name="MAGMOM">      1.00000000      1.00000000      1.00000000      1.00000000      1.00000000      1.00000000      1.00000000      1.00000000      1.00000000      1.00000000      1.00000000      1.00000000      1.00000000      1.00000000      1.00000000      1.00000000      1.00000000      1.00000000      1.00000000      1.00000000
      1.00000000      1.00000000      1.00000000      1.00000000      1.00000000      1.00000000      1.00000000      1.00000000      1.00000000      1.00000000      1.00000000      1.00000000      1.00000000      1.00000000      1.00000000      1.00000000      1.00000000      1.00000000      1.00000000      1.00000000
      1.00000000      1.00000000      1.00000000      1.00000000      1.00000000      1.00000000      1.00000000      1.00000000      1.00000000      1.00000000      1.00000000      1.00000000      1.00000000      1.00000000      1.00000000      1.00000000      1.00000000      1.00000000      1.00000000      1.00000000
      1.00000000      1.00000000      1.00000000      1.00000000      1.00000000      1.00000000      1.00000000      1.00000000      1.00000000      1.00000000      1.00000000      1.00000000      1.00000000      1.00000000      1.00000000      1.00000000      1.00000000      1.00000000      1.00000000      1.00000000
      1.00000000      1.00000000      1.00000000      1.00000000      1.00000000      1.00000000      1.00000000      1.00000000      1.00000000      1.00000000      1.00000000      1.00000000      1.00000000      1.00000000      1.00000000      1.00000000      1.00000000      1.00000000      1.00000000      1.00000000
      1.00000000      1.00000000      1.00000000      1.00000000      1.00000000      1.00000000      1.00000000      1.00000000      1.00000000      1.00000000      1.00000000      1.00000000      1.00000000      1.00000000      1.00000000      1.00000000      1.00000000      1.00000000      1.00000000      1.00000000
      1.00000000      1.00000000      1.00000000      1.00000000      1.00000000      1.00000000</v>
    <i name="NUPDOWN">     -1.00000000</i>
    <i type="logical" name="LSORBIT"> F  </i>
    <v name="SAXIS">      0.00000000      0.00000000      1.00000000</v>
    <i type="logical" name="LSPIRAL"> F  </i>
    <v name="QSPIRAL">      0.00000000      0.00000000      0.00000000</v>
    <i type="logical" name="LZEROZ"> F  </i>
   </separator>
   <separator name="electronic exchange-correlation" >
    <i type="logical" name="LASPH"> F  </i>
    <i type="logical" name="LMETAGGA"> F  </i>
   </separator>
   <separator name="electronic convergence" >
    <i type="int" name="NELM">   200</i>
    <i type="int" name="NELMDL">     0</i>
    <i type="int" name="NELMIN">     2</i>
    <i name="ENINI">    500.00000000</i>
    <separator name="electronic convergence detail" >
     <i type="logical" name="LDIAG"> T  </i>
     <i type="logical" name="LSUBROT"> F  </i>
     <i name="WEIMIN">      0.00000000</i>
     <i name="EBREAK">      0.00000001</i>
     <i name="DEPER">      0.30000000</i>
     <i type="int" name="NRMM">     4</i>
     <i name="TIME">      0.40000000</i>
    </separator>
   </separator>
   <separator name="electronic mixer" >
    <i name="AMIX">      0.40000000</i>
    <i name="BMIX">      1.00000000</i>
    <i name="AMIN">      0.10000000</i>
    <i name="AMIX_MAG">      1.60000000</i>
    <i name="BMIX_MAG">      1.00000000</i>
    <separator name="electronic mixer details" >
     <i type="int" name="IMIX">     4</i>
     <i type="logical" name="MIXFIRST"> F  </i>
     <i type="int" name="MAXMIX">   -45</i>
     <i name="WC">    100.00000000</i>
     <i type="int" name="INIMIX">     1</i>
     <i type="int" name="MIXPRE">     1</i>
     <i type="int" name="MREMOVE">     5</i>
    </separator>
   </separator>
   <separator name="electronic dipolcorrection" >
    <i type="logical" name="LDIPOL"> F  </i>
    <i type="logical" name="LMONO"> F  </i>
    <i type="int" name="IDIPOL">     0</i>
    <i name="EPSILON">      1.00000000</i>
    <v name="DIPOL">   -100.00000000   -100.00000000   -100.00000000</v>
    <i name="EFIELD">      0.00000000</i>
   </separator>
  </separator>
  <separator name="grids" >
   <i type="int" name="NGX">   270</i>
   <i type="int" name="NGY">   270</i>
   <i type="int" name="NGZ">   150</i>
   <i type="int" name="NGXF">   420</i>
   <i type="int" name="NGYF">   420</i>
   <i type="int" name="NGZF">   224</i>
   <i type="logical" name="ADDGRID"> F  </i>
  </separator>
  <separator name="ionic" >
   <i type="int" name="NSW">     0</i>
   <i type="int" name="IBRION">    -1</i>
   <i type="int" name="MDALGO">     0</i>
   <i type="int" name="ISIF">     2</i>
   <i name="PSTRESS">      0.00000000</i>
   <i name="EDIFFG">     -0.01000000</i>
   <i type="int" name="NFREE">     0</i>
   <i name="POTIM">      0.30000000</i>
   <i name="SMASS">     -3.00000000</i>
   <i name="SCALEE">      1.00000000</i>
  </separator>
  <separator name="ionic md" >
   <i name="TEBEG">      0.00010000</i>
   <i name="TEEND">      0.00010000</i>
   <i type="int" name="NBLOCK">     1</i>
   <i type="int" name="KBLOCK">     1</i>
   <i type="int" name="NPACO">   256</i>
   <i name="APACO">     16.00000000</i>
  </separator>
  <separator name="symmetry" >
   <i type="int" name="ISYM">     2</i>
   <i name="SYMPREC">      0.00001000</i>
  </separator>
  <separator name="dos" >
   <i type="int" name="LORBIT">     0</i>
   <v name="RWIGS">     -1.00000000     -1.00000000     -1.00000000</v>
   <i type="int" name="NEDOS">   301</i>
   <i name="EMIN">     10.00000000</i>
   <i name="EMAX">    -10.00000000</i>
   <i name="EFERMI">      0.00000000</i>
  </separator>
  <separator name="writing" >
   <i type="int" name="NWRITE">     0</i>
   <i type="logical" name="LWAVE"> F  </i>
   <i type="logical" name="LDOWNSAMPLE"> F  </i>
   <i type="logical" name="LCHARG"> F  </i>
   <i type="logical" name="LPARD"> F  </i>
   <i type="logical" name="LVTOT"> F  </i>
   <i type="logical" name="LVHAR"> F  </i>
   <i type="logical" name="LELF"> F  </i>
   <i type="logical" name="LOPTICS"> F  </i>
   <v name="STM">      0.00000000      0.00000000      0.00000000      0.00000000      0.00000000      0.00000000      0.00000000</v>
  </separator>
  <separator name="performance" >
   <i type="int" name="NPAR">    16</i>
   <i type="int" name="NSIM">     4</i>
   <i type="int" name="NBLK">    -1</i>
   <i type="logical" name="LPLANE"> T  </i>
   <i type="logical" name="LSCALAPACK"> T  </i>
   <i type="logical" name="LSCAAWARE"> F  </i>
   <i type="logical" name="LSCALU"> F  </i>
   <i type="logical" name="LASYNC"> F  </i>
   <i type="logical" name="LORBITALREAL"> F  </i>
  </separator>
  <separator name="miscellaneous" >
   <i type="int" name="IDIOT">     3</i>
   <i type="int" name="ISPECIAL">     0</i>
   <i type="logical" name="LMUSIC"> F  </i>
   <v name="POMASS">     14.00100000     12.01100000      1.00000000</v>
   <v name="DARWINR">      0.00000000      0.00000000      0.00000000</v>
   <v name="DARWINV">      1.00000000      1.00000000      1.00000000</v>
   <i type="logical" name="LCORR"> T  </i>
  </separator>
  <i type="logical" name="GGA_COMPAT"> T  </i>
  <i type="logical" name="LBERRY"> F  </i>
  <i type="int" name="ICORELEVEL">     0</i>
  <i type="logical" name="LDAU"> F  </i>
  <i type="int" name="I_CONSTRAINED_M">     0</i>
  <separator name="electronic exchange-correlation" >
   <i type="string" name="GGA">PE</i>
   <i type="int" name="VOSKOWN">     0</i>
   <i type="logical" name="LHFCALC"> F  </i>
   <i type="string" name="PRECFOCK"></i>
   <i type="logical" name="LSYMGRAD"> F  </i>
   <i type="logical" name="LHFONE"> F  </i>
   <i type="logical" name="LRHFCALC"> F  </i>
   <i type="logical" name="LTHOMAS"> F  </i>
   <i type="logical" name="LMODELHF"> F  </i>
   <i name="ENCUT4O">     -1.00000000</i>
   <i type="int" name="EXXOEP">     0</i>
   <i type="int" name="FOURORBIT">     0</i>
   <i name="AEXX">      0.00000000</i>
   <i name="HFALPHA">      0.00000000</i>
   <i name="MCALPHA">      0.00000000</i>
   <i name="ALDAX">      1.00000000</i>
   <i name="AGGAX">      1.00000000</i>
   <i name="ALDAC">      1.00000000</i>
   <i name="AGGAC">      1.00000000</i>
   <i type="int" name="NKREDX">     1</i>
   <i type="int" name="NKREDY">     1</i>
   <i type="int" name="NKREDZ">     1</i>
   <i type="logical" name="SHIFTRED"> F  </i>
   <i type="logical" name="ODDONLY"> F  </i>
   <i type="logical" name="EVENONLY"> F  </i>
   <i type="int" name="LMAXFOCK">     0</i>
   <i type="int" name="NMAXFOCKAE">     0</i>
   <i type="logical" name="LFOCKAEDFT"> F  </i>
   <i name="HFSCREEN">      0.00000000</i>
   <i name="HFSCREENC">      0.00000000</i>
   <i type="int" name="NBANDSGWLOW">     0</i>
  </separator>
  <separator name="vdW DFT" >
   <i type="logical" name="LUSE_VDW"> F  </i>
   <i name="Zab_VDW">     -0.84910000</i>
   <i name="PARAM1">      0.12340000</i>
   <i name="PARAM2">      1.00000000</i>
   <i name="PARAM3">      0.00000000</i>
  </separator>
  <separator name="model GW" >
   <i type="int" name="MODEL_GW">     0</i>
   <i name="MODEL_EPS0">    110.65042190</i>
   <i name="MODEL_ALPHA">      1.00000000</i>
  </separator>
  <separator name="linear response parameters" >
   <i type="logical" name="LEPSILON"> F  </i>
   <i type="logical" name="LRPA"> F  </i>
   <i type="logical" name="LNABLA"> F  </i>
   <i type="logical" name="LVEL"> F  </i>
   <i type="int" name="KINTER">     0</i>
   <i name="CSHIFT">      0.10000000</i>
   <i name="OMEGAMAX">     -1.00000000</i>
   <i name="DEG_THRESHOLD">      0.00200000</i>
   <i name="RTIME">     -0.10000000</i>
   <i name="WPLASMAI">      0.00000000</i>
   <v name="DFIELD">      0.00000000      0.00000000      0.00000000</v>
   <v name="WPLASMA">      0.00000000      0.00000000      0.00000000      0.00000000      0.00000000      0.00000000      0.00000000      0.00000000      0.00000000</v>
  </separator>
  <separator name="orbital magnetization" >
   <i type="logical" name="NUCIND"> F  </i>
   <v name="MAGPOS">      0.00000000      0.00000000      0.00000000</v>
   <i type="logical" name="LNICSALL"> T  </i>
   <i type="logical" name="ORBITALMAG"> F  </i>
   <i type="logical" name="LMAGBLOCH"> F  </i>
   <i type="logical" name="LCHIMAG"> F  </i>
   <i type="logical" name="LGAUGE"> T  </i>
   <i type="int" name="MAGATOM">     0</i>
   <v name="MAGDIPOL">      0.00000000      0.00000000      0.00000000</v>
   <v name="AVECCONST">      0.00000000      0.00000000      0.00000000</v>
  </separator>
  <separator name="response functions" >
   <i type="logical" name="LADDER"> F  </i>
   <i type="logical" name="LRPAFORCE"> F  </i>
   <i type="logical" name="LFXC"> F  </i>
   <i type="logical" name="LHARTREE"> T  </i>
   <i type="int" name="IBSE">     0</i>
   <v type="int" name="KPOINT">    -1     0     0     0</v>
   <i type="logical" name="LTCTE"> F  </i>
   <i type="logical" name="LTETE"> F  </i>
   <i type="logical" name="LTRIPLET"> F  </i>
   <i type="logical" name="LFXCEPS"> F  </i>
   <i type="logical" name="LFXHEG"> F  </i>
   <i type="int" name="NATURALO">     2</i>
   <i type="logical" name="L2ORDER"> F  </i>
   <i type="logical" name="LMP2LT"> F  </i>
   <i type="logical" name="LUSEW"> F  </i>
   <i name="ENCUTGW">     -2.00000000</i>
   <i name="ENCUTGWSOFT">     -2.00000000</i>
   <i name="ENCUTLF">     -1.00000000</i>
   <i type="int" name="LMAXMP2">    -1</i>
   <i name="SCISSOR">      0.00000000</i>
   <i type="int" name="NOMEGA">     0</i>
   <i type="int" name="NOMEGAR">     0</i>
   <i type="int" name="NBANDSGW">    -1</i>
   <i type="int" name="NBANDSO">    -1</i>
   <i type="int" name="NBANDSV">    -1</i>
   <i type="int" name="NELM">   200</i>
   <i type="int" name="NELMHF">     1</i>
   <i type="int" name="DIM">     3</i>
   <i type="int" name="ANTIRES">     0</i>
   <i name="OMEGAMAX">    -30.00000000</i>
   <i name="OMEGAMIN">    -30.00000000</i>
   <i name="OMEGATL">   -200.00000000</i>
   <i type="int" name="OMEGAGRID">   140</i>
   <i name="CSHIFT">     -0.10000000</i>
   <i type="logical" name="SELFENERGY"> F  </i>
   <i type="logical" name="LSPECTRAL"> F  </i>
   <i type="logical" name="LSPECTRALGW"> F  </i>
   <i type="logical" name="LSINGLES"> F  </i>
   <i type="logical" name="LFERMIGW"> F  </i>
   <i type="logical" name="ODDONLYGW"> F  </i>
   <i type="logical" name="EVENONLYGW"> F  </i>
   <i type="int" name="NKREDLFX">     1</i>
   <i type="int" name="NKREDLFY">     1</i>
   <i type="int" name="NKREDLFZ">     1</i>
   <i type="int" name="MAXMEM">  2800</i>
   <i type="int" name="TELESCOPE">     0</i>
   <i type="int" name="TAUPAR">     1</i>
   <i type="int" name="OMEGAPAR">    -1</i>
   <i name="LAMBDA">      1.00000000</i>
  </separator>
  <separator name="External order field" >
   <i name="OFIELD_KAPPA">      0.00000000</i>
   <v name="OFIELD_K">      0.00000000      0.00000000      0.00000000</v>
   <i name="OFIELD_Q6_NEAR">      0.00000000</i>
   <i name="OFIELD_Q6_FAR">      0.00000000</i>
   <i name="OFIELD_A">      0.00000000</i>
  </separator>
  <separator name="solvation model" >
   <i type="logical" name="LSOL"> F  </i>
  </separator>
 </parameters>
 <atominfo>
  <atoms>     126 </atoms>
  <types>       3 </types>
  <array name="atoms" >
   <dimension dim="1">ion</dimension>
   <field type="string">element</field>
   <field type="int">atomtype</field>
   <set>
    <rc><c>N </c><c>   1</c></rc>
    <rc><c>N </c><c>   1</c></rc>
    <rc><c>N </c><c>   1</c></rc>
    <rc><c>N </c><c>   1</c></rc>
    <rc><c>N </c><c>   1</c></rc>
    <rc><c>N </c><c>   1</c></rc>
    <rc><c>N </c><c>   1</c></rc>
    <rc><c>N </c><c>   1</c></rc>
    <rc><c>N </c><c>   1</c></rc>
    <rc><c>N </c><c>   1</c></rc>
    <rc><c>N </c><c>   1</c></rc>
    <rc><c>N </c><c>   1</c></rc>
    <rc><c>N </c><c>   1</c></rc>
    <rc><c>N </c><c>   1</c></rc>
    <rc><c>N </c><c>   1</c></rc>
    <rc><c>N </c><c>   1</c></rc>
    <rc><c>N </c><c>   1</c></rc>
    <rc><c>N </c><c>   1</c></rc>
    <rc><c>C </c><c>   2</c></rc>
    <rc><c>C </c><c>   2</c></rc>
    <rc><c>C </c><c>   2</c></rc>
    <rc><c>C </c><c>   2</c></rc>
    <rc><c>C </c><c>   2</c></rc>
    <rc><c>C </c><c>   2</c></rc>
    <rc><c>C </c><c>   2</c></rc>
    <rc><c>C </c><c>   2</c></rc>
    <rc><c>C </c><c>   2</c></rc>
    <rc><c>C </c><c>   2</c></rc>
    <rc><c>C </c><c>   2</c></rc>
    <rc><c>C </c><c>   2</c></rc>
    <rc><c>C </c><c>   2</c></rc>
    <rc><c>C </c><c>   2</c></rc>
    <rc><c>C </c><c>   2</c></rc>
    <rc><c>C </c><c>   2</c></rc>
    <rc><c>C </c><c>   2</c></rc>
    <rc><c>C </c><c>   2</c></rc>
    <rc><c>C </c><c>   2</c></rc>
    <rc><c>C </c><c>   2</c></rc>
    <rc><c>C </c><c>   2</c></rc>
    <rc><c>C </c><c>   2</c></rc>
    <rc><c>C </c><c>   2</c></rc>
    <rc><c>C </c><c>   2</c></rc>
    <rc><c>C </c><c>   2</c></rc>
    <rc><c>C </c><c>   2</c></rc>
    <rc><c>C </c><c>   2</c></rc>
    <rc><c>C </c><c>   2</c></rc>
    <rc><c>C </c><c>   2</c></rc>
    <rc><c>C </c><c>   2</c></rc>
    <rc><c>C </c><c>   2</c></rc>
    <rc><c>C </c><c>   2</c></rc>
    <rc><c>C </c><c>   2</c></rc>
    <rc><c>C </c><c>   2</c></rc>
    <rc><c>C </c><c>   2</c></rc>
    <rc><c>C </c><c>   2</c></rc>
    <rc><c>C </c><c>   2</c></rc>
    <rc><c>C </c><c>   2</c></rc>
    <rc><c>C </c><c>   2</c></rc>
    <rc><c>C </c><c>   2</c></rc>
    <rc><c>C </c><c>   2</c></rc>
    <rc><c>C </c><c>   2</c></rc>
    <rc><c>C </c><c>   2</c></rc>
    <rc><c>C </c><c>   2</c></rc>
    <rc><c>C </c><c>   2</c></rc>
    <rc><c>C </c><c>   2</c></rc>
    <rc><c>C </c><c>   2</c></rc>
    <rc><c>C </c><c>   2</c></rc>
    <rc><c>C </c><c>   2</c></rc>
    <rc><c>C </c><c>   2</c></rc>
    <rc><c>C </c><c>   2</c></rc>
    <rc><c>C </c><c>   2</c></rc>
    <rc><c>C </c><c>   2</c></rc>
    <rc><c>C </c><c>   2</c></rc>
    <rc><c>C </c><c>   2</c></rc>
    <rc><c>C </c><c>   2</c></rc>
    <rc><c>C </c><c>   2</c></rc>
    <rc><c>C </c><c>   2</c></rc>
    <rc><c>C </c><c>   2</c></rc>
    <rc><c>C </c><c>   2</c></rc>
    <rc><c>C </c><c>   2</c></rc>
    <rc><c>C </c><c>   2</c></rc>
    <rc><c>C </c><c>   2</c></rc>
    <rc><c>C </c><c>   2</c></rc>
    <rc><c>C </c><c>   2</c></rc>
    <rc><c>C </c><c>   2</c></rc>
    <rc><c>C </c><c>   2</c></rc>
    <rc><c>C </c><c>   2</c></rc>
    <rc><c>C </c><c>   2</c></rc>
    <rc><c>C </c><c>   2</c></rc>
    <rc><c>C </c><c>   2</c></rc>
    <rc><c>C </c><c>   2</c></rc>
    <rc><c>H </c><c>   3</c></rc>
    <rc><c>H </c><c>   3</c></rc>
    <rc><c>H </c><c>   3</c></rc>
    <rc><c>H </c><c>   3</c></rc>
    <rc><c>H </c><c>   3</c></rc>
    <rc><c>H </c><c>   3</c></rc>
    <rc><c>H </c><c>   3</c></rc>
    <rc><c>H </c><c>   3</c></rc>
    <rc><c>H </c><c>   3</c></rc>
    <rc><c>H </c><c>   3</c></rc>
    <rc><c>H </c><c>   3</c></rc>
    <rc><c>H </c><c>   3</c></rc>
    <rc><c>H </c><c>   3</c></rc>
    <rc><c>H </c><c>   3</c></rc>
    <rc><c>H </c><c>   3</c></rc>
    <rc><c>H </c><c>   3</c></rc>
    <rc><c>H </c><c>   3</c></rc>
    <rc><c>H </c><c>   3</c></rc>
    <rc><c>H </c><c>   3</c></rc>
    <rc><c>H </c><c>   3</c></rc>
    <rc><c>H </c><c>   3</c></rc>
    <rc><c>H </c><c>   3</c></rc>
    <rc><c>H </c><c>   3</c></rc>
    <rc><c>H </c><c>   3</c></rc>
    <rc><c>H </c><c>   3</c></rc>
    <rc><c>H </c><c>   3</c></rc>
    <rc><c>H </c><c>   3</c></rc>
    <rc><c>H </c><c>   3</c></rc>
    <rc><c>H </c><c>   3</c></rc>
    <rc><c>H </c><c>   3</c></rc>
    <rc><c>H </c><c>   3</c></rc>
    <rc><c>H </c><c>   3</c></rc>
    <rc><c>H </c><c>   3</c></rc>
    <rc><c>H </c><c>   3</c></rc>
    <rc><c>H </c><c>   3</c></rc>
    <rc><c>H </c><c>   3</c></rc>
   </set>
  </array>
  <array name="atomtypes" >
   <dimension dim="1">type</dimension>
   <field type="int">atomspertype</field>
   <field type="string">element</field>
   <field>mass</field>
   <field>valence</field>
   <field type="string">pseudopotential</field>
   <set>
    <rc><c>  18</c><c>N </c><c>     14.00100000</c><c>      5.00000000</c><c>  PAW_PBE N 08Apr2002                   </c></rc>
    <rc><c>  72</c><c>C </c><c>     12.01100000</c><c>      4.00000000</c><c>  PAW_PBE C 08Apr2002                   </c></rc>
    <rc><c>  36</c><c>H </c><c>      1.00000000</c><c>      1.00000000</c><c>  PAW_PBE H 15Jun2001                   </c></rc>
   </set>
  </array>
 </atominfo>
 <structure name="initialpos" >
  <crystal>
   <varray name="basis" >
    <v>      36.62738140       0.00000000       0.00000000 </v>
    <v>     -18.31369070      31.72024277       0.00000000 </v>
    <v>       0.00000000       0.00000000      20.00000000 </v>
   </varray>
   <i name="volume">  23236.58859872 </i>
   <varray name="rec_basis" >
    <v>       0.02730198       0.01576280       0.00000000 </v>
    <v>       0.00000000       0.03152561       0.00000000 </v>
    <v>       0.00000000       0.00000000       0.05000000 </v>
   </varray>
  </crystal>
  <varray name="positions" >
   <v>       0.37664575       0.68832288       0.49986082 </v>
   <v>       0.31167712       0.62335425       0.49986082 </v>
   <v>       0.31167712       0.68832288       0.49986082 </v>
   <v>       0.62334672       0.31167336       0.49979654 </v>
   <v>       0.68832664       0.37665328       0.49979654 </v>
   <v>       0.68832664       0.31167336       0.49979654 </v>
   <v>       0.48985998       0.51014002       0.61875875 </v>
   <v>       0.51018517       0.48981483       0.61873766 </v>
   <v>       0.48985998       0.97971996       0.61875875 </v>
   <v>       0.51018517       0.02037034       0.61873766 </v>
   <v>       0.02028004       0.51014002       0.61875875 </v>
   <v>       0.97962966       0.48981483       0.61873766 </v>
   <v>       0.52249408       0.47750592       0.43681388 </v>
   <v>       0.47750426       0.52249574       0.43688288 </v>
   <v>       0.52249408       0.04498815       0.43681388 </v>
   <v>       0.47750426       0.95500851       0.43688288 </v>
   <v>       0.95501185       0.47750592       0.43681388 </v>
   <v>       0.04499149       0.52249574       0.43688288 </v>
   <v>       0.35404566       0.70809133       0.49992054 </v>
   <v>       0.35404566       0.64595434       0.49992054 </v>
   <v>       0.29190867       0.64595434       0.49992054 </v>
   <v>       0.37737968       0.62262032       0.50040407 </v>
   <v>       0.42165872       0.64444607       0.50080605 </v>
   <v>       0.44357701       0.62247939       0.50177005 </v>
   <v>       0.42177928       0.57822072       0.50245951 </v>
   <v>       0.37752061       0.55642299       0.50177005 </v>
   <v>       0.35555393       0.57834128       0.50080605 </v>
   <v>       0.37737968       0.75475935       0.50040407 </v>
   <v>       0.42165872       0.77721265       0.50080605 </v>
   <v>       0.44357701       0.82109761       0.50177005 </v>
   <v>       0.42177928       0.84355857       0.50245951 </v>
   <v>       0.37752061       0.82109761       0.50177005 </v>
   <v>       0.35555393       0.77721265       0.50080605 </v>
   <v>       0.24524065       0.62262032       0.50040407 </v>
   <v>       0.22278735       0.64444607       0.50080605 </v>
   <v>       0.17890239       0.62247939       0.50177005 </v>
   <v>       0.15644143       0.57822072       0.50245951 </v>
   <v>       0.17890239       0.55642299       0.50177005 </v>
   <v>       0.22278735       0.57834128       0.50080605 </v>
   <v>       0.64595551       0.29191103       0.49982085 </v>
   <v>       0.64595551       0.35404449       0.49982085 </v>
   <v>       0.70808897       0.35404449       0.49982085 </v>
   <v>       0.62262492       0.37737508       0.50029714 </v>
   <v>       0.57834707       0.35554434       0.50068446 </v>
   <v>       0.55642920       0.37751018       0.50160780 </v>
   <v>       0.57823185       0.42176815       0.50228256 </v>
   <v>       0.62248982       0.44357080       0.50160780 </v>
   <v>       0.64445566       0.42165293       0.50068446 </v>
   <v>       0.62262492       0.24524983       0.50029714 </v>
   <v>       0.57834707       0.22280273       0.50068446 </v>
   <v>       0.55642920       0.17891902       0.50160780 </v>
   <v>       0.57823185       0.15646370       0.50228256 </v>
   <v>       0.62248982       0.17891902       0.50160780 </v>
   <v>       0.64445566       0.22280273       0.50068446 </v>
   <v>       0.75475017       0.37737508       0.50029714 </v>
   <v>       0.77719727       0.35554434       0.50068446 </v>
   <v>       0.82108098       0.37751018       0.50160780 </v>
   <v>       0.84353630       0.42176815       0.50228256 </v>
   <v>       0.82108098       0.44357080       0.50160780 </v>
   <v>       0.77719727       0.42165293       0.50068446 </v>
   <v>       0.52113195       0.47886805       0.55850816 </v>
   <v>       0.54333806       0.45666194       0.56185214 </v>
   <v>       0.44520581       0.55479419       0.50312628 </v>
   <v>       0.45669398       0.54330602       0.56199645 </v>
   <v>       0.47890026       0.52109974       0.55856317 </v>
   <v>       0.52113195       0.04226391       0.55850816 </v>
   <v>       0.54333806       0.08667612       0.56185214 </v>
   <v>       0.44520581       0.89041161       0.50312628 </v>
   <v>       0.45669398       0.91338796       0.56199645 </v>
   <v>       0.47890026       0.95780052       0.55856317 </v>
   <v>       0.95773609       0.47886805       0.55850816 </v>
   <v>       0.91332388       0.45666194       0.56185214 </v>
   <v>       0.10958839       0.55479419       0.50312628 </v>
   <v>       0.08661204       0.54330602       0.56199645 </v>
   <v>       0.04219948       0.52109974       0.55856317 </v>
   <v>       0.55480907       0.44519093       0.50295455 </v>
   <v>       0.54332832       0.45667168       0.44179542 </v>
   <v>       0.51135146       0.48864854       0.49454474 </v>
   <v>       0.48866595       0.51133405       0.49457457 </v>
   <v>       0.45667281       0.54332719       0.44193826 </v>
   <v>       0.55480907       0.10961815       0.50295455 </v>
   <v>       0.54332832       0.08665664       0.44179542 </v>
   <v>       0.51135146       0.02270293       0.49454474 </v>
   <v>       0.48866595       0.97733191       0.49457457 </v>
   <v>       0.45667281       0.91334561       0.44193826 </v>
   <v>       0.89038185       0.44519093       0.50295455 </v>
   <v>       0.91334336       0.45667168       0.44179542 </v>
   <v>       0.97729707       0.48864854       0.49454474 </v>
   <v>       0.02266809       0.51133405       0.49457457 </v>
   <v>       0.08665439       0.54332719       0.44193826 </v>
   <v>       0.47797644       0.83832553       0.50212763 </v>
   <v>       0.43847826       0.75969205       0.50047072 </v>
   <v>       0.36034909       0.83832553       0.50212763 </v>
   <v>       0.32121379       0.75969205       0.50047072 </v>
   <v>       0.24030795       0.67878621       0.50047072 </v>
   <v>       0.16167447       0.63965091       0.50212763 </v>
   <v>       0.24030795       0.56152174       0.50047072 </v>
   <v>       0.16167447       0.52202356       0.50212763 </v>
   <v>       0.32121379       0.56152174       0.50047072 </v>
   <v>       0.36034909       0.52202356       0.50212763 </v>
   <v>       0.47797644       0.63965091       0.50212763 </v>
   <v>       0.43847826       0.67878621       0.50047072 </v>
   <v>       0.52202974       0.16168959       0.50197554 </v>
   <v>       0.56153310       0.24032900       0.50036331 </v>
   <v>       0.63965985       0.16168959       0.50197554 </v>
   <v>       0.67879590       0.24032900       0.50036331 </v>
   <v>       0.75967100       0.32120410       0.50036331 </v>
   <v>       0.83831041       0.36034015       0.50197554 </v>
   <v>       0.75967100       0.43846690       0.50036331 </v>
   <v>       0.83831041       0.47797026       0.50197554 </v>
   <v>       0.67879590       0.43846690       0.50036331 </v>
   <v>       0.63965985       0.47797026       0.50197554 </v>
   <v>       0.52202974       0.36034015       0.50197554 </v>
   <v>       0.56153310       0.32120410       0.50036331 </v>
   <v>       0.55089756       0.44910244       0.61086439 </v>
   <v>       0.44915108       0.55084892       0.61104716 </v>
   <v>       0.55089756       0.10179513       0.61086439 </v>
   <v>       0.44915108       0.89830215       0.61104716 </v>
   <v>       0.89820487       0.44910244       0.61086439 </v>
   <v>       0.10169785       0.55084892       0.61104716 </v>
   <v>       0.55210065       0.44789935       0.39465474 </v>
   <v>       0.44789336       0.55210664       0.39481492 </v>
   <v>       0.55210065       0.10420131       0.39465474 </v>
   <v>       0.44789336       0.89578671       0.39481492 </v>
   <v>       0.89579869       0.44789935       0.39465474 </v>
   <v>       0.10421329       0.55210664       0.39481492 </v>
  </varray>
 </structure>
 <calculation>
  <scstep>
   <time name="dav"> 1105.13 1117.54</time>
   <time name="total"> 1105.58 1118.00</time>
   <energy>
    <i name="alphaZ">     34.81795846 </i>
    <i name="ewald">  55922.64631804 </i>
    <i name="hartreedc"> -68702.75824522 </i>
    <i name="XCdc">   1448.72660292 </i>
    <i name="pawpsdc">  39303.39243920 </i>
    <i name="pawaedc"> -39378.18057036 </i>
    <i name="eentropy">     -0.00000000 </i>
    <i name="bandstr">  -5357.86338102 </i>
    <i name="atom">  15805.82512633 </i>
    <i name="e_fr_energy">   -923.39375166 </i>
    <i name="e_wo_entrp">   -923.39375166 </i>
    <i name="e_0_energy">   -923.39375166 </i>
   </energy>
  </scstep>
  <scstep>
   <time name="dav"> 1212.85 1227.25</time>
   <time name="total"> 1212.86 1227.26</time>
   <energy>
    <i name="e_fr_energy">   -923.71647289 </i>
    <i name="e_wo_entrp">   -923.71647289 </i>
    <i name="e_0_energy">   -923.71647289 </i>
   </energy>
  </scstep>
  <scstep>
   <time name="dav"> 1375.97 1393.04</time>
   <time name="total"> 1375.98 1393.05</time>
   <energy>
    <i name="e_fr_energy">   -923.72581602 </i>
    <i name="e_wo_entrp">   -923.72581602 </i>
    <i name="e_0_energy">   -923.72581602 </i>
   </energy>
  </scstep>
  <scstep>
   <time name="dav"> 1195.28 1209.47</time>
   <time name="total"> 1195.28 1209.47</time>
   <energy>
    <i name="e_fr_energy">   -923.72594606 </i>
    <i name="e_wo_entrp">   -923.72594606 </i>
    <i name="e_0_energy">   -923.72594606 </i>
   </energy>
  </scstep>
  <scstep>
   <time name="dav"> 1125.30 1138.74</time>
   <time name="total"> 1125.30 1138.74</time>
   <energy>
    <i name="alphaZ">     34.81795846 </i>
    <i name="ewald">  55922.64631804 </i>
    <i name="hartreedc"> -68702.75824522 </i>
    <i name="XCdc">   1448.72660292 </i>
    <i name="pawpsdc">  39303.39243920 </i>
    <i name="pawaedc"> -39378.18057036 </i>
    <i name="eentropy">     -0.00000000 </i>
    <i name="bandstr">  -5358.19558142 </i>
    <i name="atom">  15805.82512633 </i>
    <i name="e_fr_energy">   -923.72595205 </i>
    <i name="e_wo_entrp">   -923.72595205 </i>
    <i name="e_0_energy">   -923.72595205 </i>
   </energy>
  </scstep>
  <structure>
   <crystal>
    <varray name="basis" >
     <v>      36.62738140       0.00000000       0.00000000 </v>
     <v>     -18.31369070      31.72024277       0.00000000 </v>
     <v>       0.00000000       0.00000000      20.00000000 </v>
    </varray>
    <i name="volume">  23236.58859872 </i>
    <varray name="rec_basis" >
     <v>       0.02730198       0.01576280       0.00000000 </v>
     <v>       0.00000000       0.03152561       0.00000000 </v>
     <v>       0.00000000       0.00000000       0.05000000 </v>
    </varray>
   </crystal>
   <varray name="positions" >
    <v>       0.37664575       0.68832288       0.49986082 </v>
    <v>       0.31167712       0.62335425       0.49986082 </v>
    <v>       0.31167712       0.68832288       0.49986082 </v>
    <v>       0.62334672       0.31167336       0.49979654 </v>
    <v>       0.68832664       0.37665328       0.49979654 </v>
    <v>       0.68832664       0.31167336       0.49979654 </v>
    <v>       0.48985998       0.51014002       0.61875875 </v>
    <v>       0.51018517       0.48981483       0.61873766 </v>
    <v>       0.48985998       0.97971996       0.61875875 </v>
    <v>       0.51018517       0.02037034       0.61873766 </v>
    <v>       0.02028004       0.51014002       0.61875875 </v>
    <v>       0.97962966       0.48981483       0.61873766 </v>
    <v>       0.52249408       0.47750592       0.43681388 </v>
    <v>       0.47750426       0.52249574       0.43688288 </v>
    <v>       0.52249408       0.04498815       0.43681388 </v>
    <v>       0.47750426       0.95500851       0.43688288 </v>
    <v>       0.95501185       0.47750592       0.43681388 </v>
    <v>       0.04499149       0.52249574       0.43688288 </v>
    <v>       0.35404566       0.70809133       0.49992054 </v>
    <v>       0.35404566       0.64595434       0.49992054 </v>
    <v>       0.29190867       0.64595434       0.49992054 </v>
    <v>       0.37737968       0.62262032       0.50040407 </v>
    <v>       0.42165872       0.64444607       0.50080605 </v>
    <v>       0.44357701       0.62247939       0.50177005 </v>
    <v>       0.42177928       0.57822072       0.50245951 </v>
    <v>       0.37752061       0.55642299       0.50177005 </v>
    <v>       0.35555393       0.57834128       0.50080605 </v>
    <v>       0.37737968       0.75475935       0.50040407 </v>
    <v>       0.42165872       0.77721265       0.50080605 </v>
    <v>       0.44357701       0.82109761       0.50177005 </v>
    <v>       0.42177928       0.84355857       0.50245951 </v>
    <v>       0.37752061       0.82109761       0.50177005 </v>
    <v>       0.35555393       0.77721265       0.50080605 </v>
    <v>       0.24524065       0.62262032       0.50040407 </v>
    <v>       0.22278735       0.64444607       0.50080605 </v>
    <v>       0.17890239       0.62247939       0.50177005 </v>
    <v>       0.15644143       0.57822072       0.50245951 </v>
    <v>       0.17890239       0.55642299       0.50177005 </v>
    <v>       0.22278735       0.57834128       0.50080605 </v>
    <v>       0.64595551       0.29191103       0.49982085 </v>
    <v>       0.64595551       0.35404449       0.49982085 </v>
    <v>       0.70808897       0.35404449       0.49982085 </v>
    <v>       0.62262492       0.37737508       0.50029714 </v>
    <v>       0.57834707       0.35554434       0.50068446 </v>
    <v>       0.55642920       0.37751018       0.50160780 </v>
    <v>       0.57823185       0.42176815       0.50228256 </v>
    <v>       0.62248982       0.44357080       0.50160780 </v>
    <v>       0.64445566       0.42165293       0.50068446 </v>
    <v>       0.62262492       0.24524983       0.50029714 </v>
    <v>       0.57834707       0.22280273       0.50068446 </v>
    <v>       0.55642920       0.17891902       0.50160780 </v>
    <v>       0.57823185       0.15646370       0.50228256 </v>
    <v>       0.62248982       0.17891902       0.50160780 </v>
    <v>       0.64445566       0.22280273       0.50068446 </v>
    <v>       0.75475017       0.37737508       0.50029714 </v>
    <v>       0.77719727       0.35554434       0.50068446 </v>
    <v>       0.82108098       0.37751018       0.50160780 </v>
    <v>       0.84353630       0.42176815       0.50228256 </v>
    <v>       0.82108098       0.44357080       0.50160780 </v>
    <v>       0.77719727       0.42165293       0.50068446 </v>
    <v>       0.52113195       0.47886805       0.55850816 </v>
    <v>       0.54333806       0.45666194       0.56185214 </v>
    <v>       0.44520581       0.55479419       0.50312628 </v>
    <v>       0.45669398       0.54330602       0.56199645 </v>
    <v>       0.47890026       0.52109974       0.55856317 </v>
    <v>       0.52113195       0.04226391       0.55850816 </v>
    <v>       0.54333806       0.08667612       0.56185214 </v>
    <v>       0.44520581       0.89041161       0.50312628 </v>
    <v>       0.45669398       0.91338796       0.56199645 </v>
    <v>       0.47890026       0.95780052       0.55856317 </v>
    <v>       0.95773609       0.47886805       0.55850816 </v>
    <v>       0.91332388       0.45666194       0.56185214 </v>
    <v>       0.10958839       0.55479419       0.50312628 </v>
    <v>       0.08661204       0.54330602       0.56199645 </v>
    <v>       0.04219948       0.52109974       0.55856317 </v>
    <v>       0.55480907       0.44519093       0.50295455 </v>
    <v>       0.54332832       0.45667168       0.44179542 </v>
    <v>       0.51135146       0.48864854       0.49454474 </v>
    <v>       0.48866595       0.51133405       0.49457457 </v>
    <v>       0.45667281       0.54332719       0.44193826 </v>
    <v>       0.55480907       0.10961815       0.50295455 </v>
    <v>       0.54332832       0.08665664       0.44179542 </v>
    <v>       0.51135146       0.02270293       0.49454474 </v>
    <v>       0.48866595       0.97733191       0.49457457 </v>
    <v>       0.45667281       0.91334561       0.44193826 </v>
    <v>       0.89038185       0.44519093       0.50295455 </v>
    <v>       0.91334336       0.45667168       0.44179542 </v>
    <v>       0.97729707       0.48864854       0.49454474 </v>
    <v>       0.02266809       0.51133405       0.49457457 </v>
    <v>       0.08665439       0.54332719       0.44193826 </v>
    <v>       0.47797644       0.83832553       0.50212763 </v>
    <v>       0.43847826       0.75969205       0.50047072 </v>
    <v>       0.36034909       0.83832553       0.50212763 </v>
    <v>       0.32121379       0.75969205       0.50047072 </v>
    <v>       0.24030795       0.67878621       0.50047072 </v>
    <v>       0.16167447       0.63965091       0.50212763 </v>
    <v>       0.24030795       0.56152174       0.50047072 </v>
    <v>       0.16167447       0.52202356       0.50212763 </v>
    <v>       0.32121379       0.56152174       0.50047072 </v>
    <v>       0.36034909       0.52202356       0.50212763 </v>
    <v>       0.47797644       0.63965091       0.50212763 </v>
    <v>       0.43847826       0.67878621       0.50047072 </v>
    <v>       0.52202974       0.16168959       0.50197554 </v>
    <v>       0.56153310       0.24032900       0.50036331 </v>
    <v>       0.63965985       0.16168959       0.50197554 </v>
    <v>       0.67879590       0.24032900       0.50036331 </v>
    <v>       0.75967100       0.32120410       0.50036331 </v>
    <v>       0.83831041       0.36034015       0.50197554 </v>
    <v>       0.75967100       0.43846690       0.50036331 </v>
    <v>       0.83831041       0.47797026       0.50197554 </v>
    <v>       0.67879590       0.43846690       0.50036331 </v>
    <v>       0.63965985       0.47797026       0.50197554 </v>
    <v>       0.52202974       0.36034015       0.50197554 </v>
    <v>       0.56153310       0.32120410       0.50036331 </v>
    <v>       0.55089756       0.44910244       0.61086439 </v>
    <v>       0.44915108       0.55084892       0.61104716 </v>
    <v>       0.55089756       0.10179513       0.61086439 </v>
    <v>       0.44915108       0.89830215       0.61104716 </v>
    <v>       0.89820487       0.44910244       0.61086439 </v>
    <v>       0.10169785       0.55084892       0.61104716 </v>
    <v>       0.55210065       0.44789935       0.39465474 </v>
    <v>       0.44789336       0.55210664       0.39481492 </v>
    <v>       0.55210065       0.10420131       0.39465474 </v>
    <v>       0.44789336       0.89578671       0.39481492 </v>
    <v>       0.89579869       0.44789935       0.39465474 </v>
    <v>       0.10421329       0.55210664       0.39481492 </v>
   </varray>
  </structure>
  <varray name="forces" >
   <v>       0.00366606       0.00211660       0.00494621 </v>
   <v>       0.00000000      -0.00423320       0.00494621 </v>
   <v>      -0.00366606       0.00211660       0.00494621 </v>
   <v>       0.00344539       0.00198920      -0.00242086 </v>
   <v>       0.00000000      -0.00397840      -0.00242086 </v>
   <v>      -0.00344539       0.00198920      -0.00242086 </v>
   <v>       0.00255875      -0.00147730      -0.00633462 </v>
   <v>      -0.00132731       0.00076632      -0.00084002 </v>
   <v>      -0.00000000       0.00295459      -0.00633462 </v>
   <v>       0.00000000      -0.00153264      -0.00084002 </v>
   <v>      -0.00255875      -0.00147730      -0.00633462 </v>
   <v>       0.00132731       0.00076632      -0.00084002 </v>
   <v>      -0.00066121       0.00038175      -0.00220040 </v>
   <v>      -0.00121052       0.00069889       0.00140543 </v>
   <v>       0.00000000      -0.00076350      -0.00220040 </v>
   <v>       0.00000000      -0.00139779       0.00140543 </v>
   <v>       0.00066121       0.00038175      -0.00220040 </v>
   <v>       0.00121052       0.00069889       0.00140543 </v>
   <v>      -0.00000000       0.00035298      -0.00503928 </v>
   <v>       0.00030569      -0.00017649      -0.00503928 </v>
   <v>      -0.00030569      -0.00017649      -0.00503928 </v>
   <v>       0.00329843      -0.00190435       0.00063963 </v>
   <v>      -0.00029151       0.00134141       0.00282735 </v>
   <v>      -0.00038862       0.00082948       0.00034402 </v>
   <v>      -0.00063060       0.00036407      -0.00176475 </v>
   <v>      -0.00091266      -0.00007818       0.00034402 </v>
   <v>      -0.00130745      -0.00041825       0.00282735 </v>
   <v>      -0.00000000       0.00380870       0.00063963 </v>
   <v>       0.00101594      -0.00092316       0.00282735 </v>
   <v>       0.00052404      -0.00075129       0.00034402 </v>
   <v>       0.00000000      -0.00072815      -0.00176475 </v>
   <v>      -0.00052404      -0.00075129       0.00034402 </v>
   <v>      -0.00101594      -0.00092316       0.00282735 </v>
   <v>      -0.00329843      -0.00190435       0.00063963 </v>
   <v>       0.00029151       0.00134141       0.00282735 </v>
   <v>       0.00038862       0.00082948       0.00034402 </v>
   <v>       0.00063060       0.00036407      -0.00176475 </v>
   <v>       0.00091266      -0.00007818       0.00034402 </v>
   <v>       0.00130745      -0.00041825       0.00282735 </v>
   <v>      -0.00000000      -0.00001065       0.00574402 </v>
   <v>      -0.00000922       0.00000532       0.00574402 </v>
   <v>       0.00000922       0.00000532       0.00574402 </v>
   <v>      -0.00337185       0.00194674      -0.00099118 </v>
   <v>      -0.00031112      -0.00189694       0.00190471 </v>
   <v>       0.00039760      -0.00193475       0.00311335 </v>
   <v>       0.00207925      -0.00120045      -0.00399888 </v>
   <v>       0.00187435       0.00062304       0.00311335 </v>
   <v>       0.00148724       0.00121790       0.00190471 </v>
   <v>       0.00000000      -0.00389348      -0.00099118 </v>
   <v>      -0.00179836       0.00067903       0.00190471 </v>
   <v>      -0.00147674       0.00131171       0.00311335 </v>
   <v>      -0.00000000       0.00240091      -0.00399888 </v>
   <v>       0.00147674       0.00131171       0.00311335 </v>
   <v>       0.00179836       0.00067903       0.00190471 </v>
   <v>       0.00337185       0.00194674      -0.00099118 </v>
   <v>       0.00031112      -0.00189694       0.00190471 </v>
   <v>      -0.00039760      -0.00193475       0.00311335 </v>
   <v>      -0.00207925      -0.00120045      -0.00399888 </v>
   <v>      -0.00187435       0.00062304       0.00311335 </v>
   <v>      -0.00148724       0.00121790       0.00190471 </v>
   <v>      -0.00394240       0.00227615      -0.00133340 </v>
   <v>      -0.00231686       0.00133764       0.00011258 </v>
   <v>      -0.00164962       0.00095241       0.00410180 </v>
   <v>      -0.00116834       0.00067454      -0.00373792 </v>
   <v>       0.00111822      -0.00064561      -0.00066104 </v>
   <v>       0.00000000      -0.00455230      -0.00133340 </v>
   <v>       0.00000000      -0.00267528       0.00011258 </v>
   <v>       0.00000000      -0.00190481       0.00410180 </v>
   <v>       0.00000000      -0.00134909      -0.00373792 </v>
   <v>      -0.00000000       0.00129121      -0.00066104 </v>
   <v>       0.00394240       0.00227615      -0.00133340 </v>
   <v>       0.00231686       0.00133764       0.00011258 </v>
   <v>       0.00164962       0.00095241       0.00410180 </v>
   <v>       0.00116834       0.00067454      -0.00373792 </v>
   <v>      -0.00111822      -0.00064561      -0.00066104 </v>
   <v>      -0.00189040       0.00109143       0.00482940 </v>
   <v>      -0.00312606       0.00180483      -0.00415661 </v>
   <v>       0.00161636      -0.00093320      -0.00163237 </v>
   <v>      -0.00517114       0.00298556       0.00192785 </v>
   <v>       0.00229435      -0.00132464      -0.00510798 </v>
   <v>       0.00000000      -0.00218285       0.00482940 </v>
   <v>       0.00000000      -0.00360966      -0.00415661 </v>
   <v>      -0.00000000       0.00186641      -0.00163237 </v>
   <v>       0.00000000      -0.00597111       0.00192785 </v>
   <v>      -0.00000000       0.00264928      -0.00510798 </v>
   <v>       0.00189040       0.00109143       0.00482940 </v>
   <v>       0.00312606       0.00180483      -0.00415661 </v>
   <v>      -0.00161636      -0.00093320      -0.00163237 </v>
   <v>       0.00517114       0.00298556       0.00192785 </v>
   <v>      -0.00229435      -0.00132464      -0.00510798 </v>
   <v>      -0.00017249      -0.00039206       0.00185805 </v>
   <v>      -0.00095290      -0.00067457       0.00173306 </v>
   <v>       0.00017249      -0.00039206       0.00185805 </v>
   <v>       0.00095290      -0.00067457       0.00173306 </v>
   <v>       0.00106065      -0.00048795       0.00173306 </v>
   <v>       0.00042578       0.00004665       0.00185805 </v>
   <v>       0.00010775       0.00116252       0.00173306 </v>
   <v>       0.00025329       0.00034541       0.00185805 </v>
   <v>      -0.00010775       0.00116252       0.00173306 </v>
   <v>      -0.00025329       0.00034541       0.00185805 </v>
   <v>      -0.00042578       0.00004665       0.00185805 </v>
   <v>      -0.00106065      -0.00048795       0.00173306 </v>
   <v>       0.00049082      -0.00029562       0.00105981 </v>
   <v>       0.00103762       0.00029137       0.00176076 </v>
   <v>      -0.00049082      -0.00029562       0.00105981 </v>
   <v>      -0.00103762       0.00029137       0.00176076 </v>
   <v>      -0.00077115       0.00075292       0.00176076 </v>
   <v>       0.00001060       0.00057287       0.00105981 </v>
   <v>       0.00026648      -0.00104429       0.00176076 </v>
   <v>       0.00050142      -0.00027725       0.00105981 </v>
   <v>      -0.00026648      -0.00104429       0.00176076 </v>
   <v>      -0.00050142      -0.00027725       0.00105981 </v>
   <v>      -0.00001060       0.00057287       0.00105981 </v>
   <v>       0.00077115       0.00075292       0.00176076 </v>
   <v>       0.00001762      -0.00001018       0.00063587 </v>
   <v>       0.00314193      -0.00181399      -0.00473995 </v>
   <v>       0.00000000       0.00002035       0.00063587 </v>
   <v>      -0.00000000       0.00362799      -0.00473995 </v>
   <v>      -0.00001762      -0.00001018       0.00063587 </v>
   <v>      -0.00314193      -0.00181399      -0.00473995 </v>
   <v>      -0.00260993       0.00150684      -0.00402045 </v>
   <v>      -0.00089944       0.00051929      -0.00456531 </v>
   <v>       0.00000000      -0.00301368      -0.00402045 </v>
   <v>       0.00000000      -0.00103859      -0.00456531 </v>
   <v>       0.00260993       0.00150684      -0.00402045 </v>
   <v>       0.00089944       0.00051929      -0.00456531 </v>
  </varray>
  <varray name="stress" >
   <v>       0.00644847      -0.00000000       0.00000000 </v>
   <v>      -0.00000000       0.00644847      -0.00000000 </v>
   <v>      -0.00000000       0.00000000      -0.07891969 </v>
  </varray>
  <energy>
   <i name="e_fr_energy">   -926.07583441 </i>
   <i name="e_wo_entrp">   -926.07583441 </i>
   <i name="e_0_energy">     -0.00000000 </i>
  </energy>
  <time name="totalsc"> 7314.95 7406.14</time>
  <eigenvalues>
   <array>
    <dimension dim="1">band</dimension>
    <dimension dim="2">kpoint</dimension>
    <dimension dim="3">spin</dimension>
    <field>eigene</field>
    <field>occ</field>
    <set>
     <set comment="spin 1">
      <set comment="kpoint 1">
       <r>  -25.7961    1.0000 </r>
       <r>  -25.7961    1.0000 </r>
       <r>  -25.7952    1.0000 </r>
       <r>  -25.5413    1.0000 </r>
       <r>  -25.5410    1.0000 </r>
       <r>  -24.0424    1.0000 </r>
       <r>  -24.0424    1.0000 </r>
       <r>  -24.0421    1.0000 </r>
       <r>  -23.6562    1.0000 </r>
       <r>  -23.6562    1.0000 </r>
       <r>  -23.6560    1.0000 </r>
       <r>  -22.6255    1.0000 </r>
       <r>  -22.6254    1.0000 </r>
       <r>  -22.6240    1.0000 </r>
       <r>  -22.6235    1.0000 </r>
       <r>  -21.7126    1.0000 </r>
       <r>  -21.6821    1.0000 </r>
       <r>  -21.6480    1.0000 </r>
       <r>  -21.6480    1.0000 </r>
       <r>  -21.6168    1.0000 </r>
       <r>  -21.6166    1.0000 </r>
       <r>  -20.9337    1.0000 </r>
       <r>  -20.9302    1.0000 </r>
       <r>  -20.9300    1.0000 </r>
       <r>  -20.5177    1.0000 </r>
       <r>  -20.5175    1.0000 </r>
       <r>  -20.5161    1.0000 </r>
       <r>  -19.9911    1.0000 </r>
       <r>  -19.9909    1.0000 </r>
       <r>  -19.9759    1.0000 </r>
       <r>  -19.9757    1.0000 </r>
       <r>  -19.9740    1.0000 </r>
       <r>  -19.9529    1.0000 </r>
       <r>  -19.0940    1.0000 </r>
       <r>  -19.0939    1.0000 </r>
       <r>  -18.8746    1.0000 </r>
       <r>  -18.7744    1.0000 </r>
       <r>  -18.7744    1.0000 </r>
       <r>  -18.6939    1.0000 </r>
       <r>  -18.6928    1.0000 </r>
       <r>  -18.6629    1.0000 </r>
       <r>  -18.6628    1.0000 </r>
       <r>  -18.5703    1.0000 </r>
       <r>  -18.5701    1.0000 </r>
       <r>  -18.4036    1.0000 </r>
       <r>  -17.3639    1.0000 </r>
       <r>  -17.3638    1.0000 </r>
       <r>  -17.1679    1.0000 </r>
       <r>  -17.1676    1.0000 </r>
       <r>  -17.1201    1.0000 </r>
       <r>  -16.9016    1.0000 </r>
       <r>  -16.7880    1.0000 </r>
       <r>  -16.7879    1.0000 </r>
       <r>  -16.3340    1.0000 </r>
       <r>  -16.3337    1.0000 </r>
       <r>  -16.3022    1.0000 </r>
       <r>  -16.1826    1.0000 </r>
       <r>  -16.1825    1.0000 </r>
       <r>  -15.7490    1.0000 </r>
       <r>  -15.4071    1.0000 </r>
       <r>  -15.4058    1.0000 </r>
       <r>  -15.2357    1.0000 </r>
       <r>  -15.2356    1.0000 </r>
       <r>  -15.2262    1.0000 </r>
       <r>  -15.1125    1.0000 </r>
       <r>  -15.1124    1.0000 </r>
       <r>  -15.0504    1.0000 </r>
       <r>  -15.0502    1.0000 </r>
       <r>  -15.0207    1.0000 </r>
       <r>  -14.6585    1.0000 </r>
       <r>  -14.6584    1.0000 </r>
       <r>  -14.4798    1.0000 </r>
       <r>  -14.4797    1.0000 </r>
       <r>  -13.9036    1.0000 </r>
       <r>  -13.8585    1.0000 </r>
       <r>  -13.8584    1.0000 </r>
       <r>  -13.7608    1.0000 </r>
       <r>  -13.7502    1.0000 </r>
       <r>  -13.7500    1.0000 </r>
       <r>  -13.4856    1.0000 </r>
       <r>  -13.4853    1.0000 </r>
       <r>  -13.4320    1.0000 </r>
       <r>  -13.4170    1.0000 </r>
       <r>  -13.1624    1.0000 </r>
       <r>  -13.1623    1.0000 </r>
       <r>  -13.1620    1.0000 </r>
       <r>  -12.8146    1.0000 </r>
       <r>  -12.8145    1.0000 </r>
       <r>  -12.6042    1.0000 </r>
       <r>  -12.5417    1.0000 </r>
       <r>  -12.5416    1.0000 </r>
       <r>  -12.1707    1.0000 </r>
       <r>  -12.1705    1.0000 </r>
       <r>  -12.1038    1.0000 </r>
       <r>  -11.9311    1.0000 </r>
       <r>  -11.9308    1.0000 </r>
       <r>  -11.8854    1.0000 </r>
       <r>  -11.6624    1.0000 </r>
       <r>  -11.6622    1.0000 </r>
       <r>  -11.5878    1.0000 </r>
       <r>  -11.4533    1.0000 </r>
       <r>  -11.4532    1.0000 </r>
       <r>  -11.4005    1.0000 </r>
       <r>  -11.3996    1.0000 </r>
       <r>  -11.3918    1.0000 </r>
       <r>  -11.3916    1.0000 </r>
       <r>  -11.3736    1.0000 </r>
       <r>  -11.1629    1.0000 </r>
       <r>  -11.1628    1.0000 </r>
       <r>  -11.1440    1.0000 </r>
       <r>  -11.1439    1.0000 </r>
       <r>  -11.1129    1.0000 </r>
       <r>  -11.0647    1.0000 </r>
       <r>  -11.0068    1.0000 </r>
       <r>  -10.9520    1.0000 </r>
       <r>  -10.9519    1.0000 </r>
       <r>  -10.9163    1.0000 </r>
       <r>  -10.6409    1.0000 </r>
       <r>  -10.4616    1.0000 </r>
       <r>  -10.4615    1.0000 </r>
       <r>  -10.3980    1.0000 </r>
       <r>  -10.3979    1.0000 </r>
       <r>  -10.3323    1.0000 </r>
       <r>  -10.3254    1.0000 </r>
       <r>  -10.3248    1.0000 </r>
       <r>  -10.3238    1.0000 </r>
       <r>  -10.0872    1.0000 </r>
       <r>  -10.0726    1.0000 </r>
       <r>  -10.0724    1.0000 </r>
       <r>  -10.0482    1.0000 </r>
       <r>  -10.0480    1.0000 </r>
       <r>   -9.8614    1.0000 </r>
       <r>   -9.8612    1.0000 </r>
       <r>   -9.8467    1.0000 </r>
       <r>   -9.7656    1.0000 </r>
       <r>   -9.7654    1.0000 </r>
       <r>   -9.7616    1.0000 </r>
       <r>   -9.7322    1.0000 </r>
       <r>   -9.6956    1.0000 </r>
       <r>   -9.6953    1.0000 </r>
       <r>   -9.6935    1.0000 </r>
       <r>   -9.6647    1.0000 </r>
       <r>   -9.6645    1.0000 </r>
       <r>   -9.6214    1.0000 </r>
       <r>   -9.6213    1.0000 </r>
       <r>   -9.5765    1.0000 </r>
       <r>   -9.5762    1.0000 </r>
       <r>   -9.1672    1.0000 </r>
       <r>   -9.1487    1.0000 </r>
       <r>   -8.9640    1.0000 </r>
       <r>   -8.9216    1.0000 </r>
       <r>   -8.7959    1.0000 </r>
       <r>   -8.7937    1.0000 </r>
       <r>   -8.7057    1.0000 </r>
       <r>   -8.7055    1.0000 </r>
       <r>   -8.6858    1.0000 </r>
       <r>   -8.6857    1.0000 </r>
       <r>   -8.5087    1.0000 </r>
       <r>   -8.5087    1.0000 </r>
       <r>   -8.4632    1.0000 </r>
       <r>   -8.4632    1.0000 </r>
       <r>   -8.4246    1.0000 </r>
       <r>   -8.3742    1.0000 </r>
       <r>   -8.3740    1.0000 </r>
       <r>   -8.3595    1.0000 </r>
       <r>   -8.2995    1.0000 </r>
       <r>   -8.2994    1.0000 </r>
       <r>   -7.9863    1.0000 </r>
       <r>   -7.9271    1.0000 </r>
       <r>   -7.9268    1.0000 </r>
       <r>   -7.8104    1.0000 </r>
       <r>   -7.8102    1.0000 </r>
       <r>   -7.8098    1.0000 </r>
       <r>   -7.6465    1.0000 </r>
       <r>   -7.6463    1.0000 </r>
       <r>   -7.6276    1.0000 </r>
       <r>   -6.7685    1.0000 </r>
       <r>   -6.7683    1.0000 </r>
       <r>   -6.7662    1.0000 </r>
       <r>   -6.6188    1.0000 </r>
       <r>   -6.6188    1.0000 </r>
       <r>   -6.6022    1.0000 </r>
       <r>   -6.6021    1.0000 </r>
       <r>   -6.6003    1.0000 </r>
       <r>   -6.5942    1.0000 </r>
       <r>   -6.5698    1.0000 </r>
       <r>   -6.5228    1.0000 </r>
       <r>   -6.4961    1.0000 </r>
       <r>   -6.4958    1.0000 </r>
       <r>   -6.4773    1.0000 </r>
       <r>   -6.4753    1.0000 </r>
       <r>   -6.4751    1.0000 </r>
       <r>   -6.3930    1.0000 </r>
       <r>   -6.3928    1.0000 </r>
       <r>   -6.2320    1.0000 </r>
       <r>   -6.1915    1.0000 </r>
       <r>   -6.1913    1.0000 </r>
       <r>   -6.1177    1.0000 </r>
       <r>   -6.1080    1.0000 </r>
       <r>   -6.1070    1.0000 </r>
       <r>   -6.1058    1.0000 </r>
       <r>   -6.1052    1.0000 </r>
       <r>   -6.0894    1.0000 </r>
       <r>   -6.0894    1.0000 </r>
       <r>   -5.0857    1.0000 </r>
       <r>   -5.0854    1.0000 </r>
       <r>   -5.0841    1.0000 </r>
       <r>   -3.2503    0.0000 </r>
       <r>   -3.2500    0.0000 </r>
       <r>   -3.2484    0.0000 </r>
       <r>   -2.9294    0.0000 </r>
       <r>   -2.9291    0.0000 </r>
       <r>   -2.9272    0.0000 </r>
       <r>   -2.9270    0.0000 </r>
       <r>   -2.7002    0.0000 </r>
       <r>   -2.6988    0.0000 </r>
       <r>   -2.6985    0.0000 </r>
       <r>   -1.8668    0.0000 </r>
       <r>   -1.8638    0.0000 </r>
       <r>   -1.8635    0.0000 </r>
       <r>   -1.7989    0.0000 </r>
       <r>   -1.7945    0.0000 </r>
       <r>   -1.4815    0.0000 </r>
       <r>   -1.4814    0.0000 </r>
       <r>   -1.4790    0.0000 </r>
       <r>   -1.3026    0.0000 </r>
       <r>   -1.3025    0.0000 </r>
       <r>   -1.2913    0.0000 </r>
       <r>   -1.0056    0.0000 </r>
       <r>   -1.0053    0.0000 </r>
       <r>   -0.9985    0.0000 </r>
       <r>   -0.4868    0.0000 </r>
       <r>   -0.4488    0.0000 </r>
       <r>   -0.4324    0.0000 </r>
       <r>   -0.4323    0.0000 </r>
       <r>   -0.4214    0.0000 </r>
       <r>   -0.4213    0.0000 </r>
       <r>   -0.3202    0.0000 </r>
       <r>   -0.3202    0.0000 </r>
       <r>   -0.2834    0.0000 </r>
       <r>   -0.2589    0.0000 </r>
       <r>   -0.2588    0.0000 </r>
       <r>   -0.1917    0.0000 </r>
       <r>   -0.1915    0.0000 </r>
       <r>    0.0083    0.0000 </r>
       <r>    0.0546    0.0000 </r>
       <r>    0.0548    0.0000 </r>
       <r>    0.0985    0.0000 </r>
       <r>    0.0989    0.0000 </r>
       <r>    0.1895    0.0000 </r>
       <r>    0.2376    0.0000 </r>
       <r>    0.2551    0.0000 </r>
       <r>    0.2572    0.0000 </r>
       <r>    0.2708    0.0000 </r>
       <r>    0.3353    0.0000 </r>
       <r>    0.3355    0.0000 </r>
       <r>    0.3725    0.0000 </r>
       <r>    0.4075    0.0000 </r>
       <r>    0.4078    0.0000 </r>
       <r>    0.4421    0.0000 </r>
       <r>    0.4873    0.0000 </r>
       <r>    0.4876    0.0000 </r>
       <r>    0.4967    0.0000 </r>
       <r>    0.4970    0.0000 </r>
       <r>    0.5304    0.0000 </r>
       <r>    0.5792    0.0000 </r>
       <r>    0.5804    0.0000 </r>
       <r>    0.5845    0.0000 </r>
       <r>    0.5864    0.0000 </r>
       <r>    0.5873    0.0000 </r>
       <r>    0.6519    0.0000 </r>
       <r>    0.6867    0.0000 </r>
      </set>
      <set comment="kpoint 2">
       <r>  -25.7961    1.0000 </r>
       <r>  -25.7961    1.0000 </r>
       <r>  -25.7952    1.0000 </r>
       <r>  -25.5413    1.0000 </r>
       <r>  -25.5410    1.0000 </r>
       <r>  -24.0424    1.0000 </r>
       <r>  -24.0424    1.0000 </r>
       <r>  -24.0421    1.0000 </r>
       <r>  -23.6562    1.0000 </r>
       <r>  -23.6562    1.0000 </r>
       <r>  -23.6560    1.0000 </r>
       <r>  -22.6255    1.0000 </r>
       <r>  -22.6254    1.0000 </r>
       <r>  -22.6240    1.0000 </r>
       <r>  -22.6235    1.0000 </r>
       <r>  -21.7125    1.0000 </r>
       <r>  -21.6822    1.0000 </r>
       <r>  -21.6480    1.0000 </r>
       <r>  -21.6479    1.0000 </r>
       <r>  -21.6168    1.0000 </r>
       <r>  -21.6167    1.0000 </r>
       <r>  -20.9337    1.0000 </r>
       <r>  -20.9302    1.0000 </r>
       <r>  -20.9300    1.0000 </r>
       <r>  -20.5177    1.0000 </r>
       <r>  -20.5175    1.0000 </r>
       <r>  -20.5161    1.0000 </r>
       <r>  -19.9911    1.0000 </r>
       <r>  -19.9909    1.0000 </r>
       <r>  -19.9759    1.0000 </r>
       <r>  -19.9757    1.0000 </r>
       <r>  -19.9740    1.0000 </r>
       <r>  -19.9530    1.0000 </r>
       <r>  -19.0939    1.0000 </r>
       <r>  -19.0937    1.0000 </r>
       <r>  -18.8756    1.0000 </r>
       <r>  -18.7744    1.0000 </r>
       <r>  -18.7736    1.0000 </r>
       <r>  -18.6939    1.0000 </r>
       <r>  -18.6928    1.0000 </r>
       <r>  -18.6630    1.0000 </r>
       <r>  -18.6628    1.0000 </r>
       <r>  -18.5702    1.0000 </r>
       <r>  -18.5700    1.0000 </r>
       <r>  -18.4039    1.0000 </r>
       <r>  -17.3638    1.0000 </r>
       <r>  -17.3635    1.0000 </r>
       <r>  -17.1680    1.0000 </r>
       <r>  -17.1676    1.0000 </r>
       <r>  -17.1201    1.0000 </r>
       <r>  -16.9041    1.0000 </r>
       <r>  -16.7879    1.0000 </r>
       <r>  -16.7853    1.0000 </r>
       <r>  -16.3341    1.0000 </r>
       <r>  -16.3337    1.0000 </r>
       <r>  -16.3022    1.0000 </r>
[...]
       <r>   -20.3122     0.0000    54.0000 </r>
       <r>   -20.2149     0.0000    54.0000 </r>
       <r>   -20.1177     0.0000    54.0000 </r>
       <r>   -20.0204     0.0004    54.0000 </r>
       <r>   -19.9231   123.3375    66.0000 </r>
       <r>   -19.8258     0.0000    66.0000 </r>
       <r>   -19.7285     0.0000    66.0000 </r>
       <r>   -19.6312     0.0000    66.0000 </r>
       <r>   -19.5339     0.0000    66.0000 </r>
       <r>   -19.4366     0.0000    66.0000 </r>
       <r>   -19.3393     0.0000    66.0000 </r>
       <r>   -19.2420     0.0000    66.0000 </r>
       <r>   -19.1447     0.0000    66.0000 </r>
       <r>   -19.0474    32.3405    69.1465 </r>
       <r>   -18.9501    15.5017    71.2085 </r>
       <r>   -18.8528     6.5080    71.9999 </r>
       <r>   -18.7555    24.1250    74.3472 </r>
       <r>   -18.6583    90.1725    83.3068 </r>
       <r>   -18.5610    23.1460    86.2520 </r>
       <r>   -18.4637    20.6048    88.8049 </r>
       <r>   -18.3664     8.9056    90.0000 </r>
       <r>   -18.2691     0.0000    90.0000 </r>
       <r>   -18.1718     0.0000    90.0000 </r>
       <r>   -18.0745     0.0000    90.0000 </r>
       <r>   -17.9772     0.0000    90.0000 </r>
       <r>   -17.8799     0.0000    90.0000 </r>
       <r>   -17.7826     0.0000    90.0000 </r>
       <r>   -17.6853     0.0000    90.0000 </r>
       <r>   -17.5880     0.0000    90.0000 </r>
       <r>   -17.4907     0.0000    90.0000 </r>
       <r>   -17.3934     0.0003    90.0000 </r>
       <r>   -17.2961    30.4938    92.9669 </r>
       <r>   -17.1988    16.8627    95.0077 </r>
       <r>   -17.1016    44.9600    99.6748 </r>
       <r>   -17.0043    10.6706   101.3720 </r>
       <r>   -16.9070     4.6912   101.8900 </r>
       <r>   -16.8097     0.0226   102.0022 </r>
       <r>   -16.7124    25.1360   104.4478 </r>
       <r>   -16.6151     3.2362   104.8149 </r>
       <r>   -16.5178     8.0202   105.6471 </r>
       <r>   -16.4205     7.9653   106.5750 </r>
       <r>   -16.3232    29.6151   109.8481 </r>
       <r>   -16.2259    35.7036   113.4748 </r>
       <r>   -16.1286    24.6655   116.0000 </r>
       <r>   -16.0313     0.0000   116.0000 </r>
       <r>   -15.9340     0.0000   116.0000 </r>
       <r>   -15.8367     0.0000   116.0000 </r>
       <r>   -15.7394     2.2268   116.2167 </r>
       <r>   -15.6421     4.4416   116.7989 </r>
       <r>   -15.5449     8.7891   117.7219 </r>
       <r>   -15.4476     8.8398   118.7269 </r>
       <r>   -15.3503    45.1785   123.3624 </r>
       <r>   -15.2530     4.3578   123.8574 </r>
       <r>   -15.1557    27.3561   126.6757 </r>
       <r>   -15.0584    54.8977   132.3088 </r>
       <r>   -14.9611    32.1905   138.0000 </r>
       <r>   -14.8638     0.0000   138.0000 </r>
       <r>   -14.7665     0.0000   138.0000 </r>
       <r>   -14.6692     1.4645   138.1425 </r>
       <r>   -14.5719    15.6271   141.8541 </r>
       <r>   -14.4746    33.2626   145.4699 </r>
       <r>   -14.3773     0.0000   146.0000 </r>
       <r>   -14.2800     0.0000   146.0000 </r>
       <r>   -14.1827     0.0000   146.0000 </r>
       <r>   -14.0854     0.0000   146.0000 </r>
       <r>   -13.9882     0.0000   146.0000 </r>
       <r>   -13.8909    10.7903   147.0498 </r>
       <r>   -13.7936    34.9225   152.0000 </r>
       <r>   -13.6963    61.6689   158.0000 </r>
       <r>   -13.5990     0.0000   158.0000 </r>
       <r>   -13.5017     0.4417   158.0430 </r>
       <r>   -13.4044    40.8202   165.9716 </r>
       <r>   -13.3071     0.0000   166.0000 </r>
       <r>   -13.2098     0.0000   166.0000 </r>
       <r>   -13.1125    61.6689   172.0000 </r>
       <r>   -13.0152     0.0000   172.0000 </r>
       <r>   -12.9179     0.0000   172.0000 </r>
       <r>   -12.8206     4.5741   172.4450 </r>
       <r>   -12.7233    20.4055   176.4859 </r>
       <r>   -12.6260     7.0280   177.6840 </r>
       <r>   -12.5287    23.4866   180.1520 </r>
       <r>   -12.4315     5.6190   180.9134 </r>
       <r>   -12.3342    14.0159   182.3974 </r>
       <r>   -12.2369     7.2463   183.4393 </r>
       <r>   -12.1396    25.0100   186.0000 </r>
       <r>   -12.0423     5.6948   186.5541 </r>
       <r>   -11.9450    21.1600   188.7256 </r>
       <r>   -11.8477    15.1228   193.4714 </r>
       <r>   -11.7504    13.2956   195.1938 </r>
       <r>   -11.6531    19.5893   197.2061 </r>
       <r>   -11.5558     5.6398   198.5487 </r>
       <r>   -11.4585    48.6058   203.5292 </r>
       <r>   -11.3612    66.7265   210.4921 </r>
       <r>   -11.2639    30.8226   214.3331 </r>
       <r>   -11.1666    36.6509   218.3330 </r>
       <r>   -11.0693    35.7173   222.9105 </r>
       <r>   -10.9720    55.5165   229.5361 </r>
       <r>   -10.8748    28.5353   232.6148 </r>
       <r>   -10.7775    14.4600   234.2069 </r>
       <r>   -10.6802    10.2327   235.4627 </r>
       <r>   -10.5829     4.1085   236.0000 </r>
       <r>   -10.4856     0.0074   236.0007 </r>
       <r>   -10.3883    80.3678   243.8200 </r>
       <r>   -10.2910    68.4326   250.6581 </r>
       <r>   -10.1937    13.9140   252.1540 </r>
       <r>   -10.0964    11.9054   253.6252 </r>
       <r>    -9.9991    82.2156   262.0000 </r>
       <r>    -9.9018     0.0000   262.0000 </r>
       <r>    -9.8045    61.6689   268.0000 </r>
       <r>    -9.7072    73.4427   275.1455 </r>
       <r>    -9.6099    84.8890   289.4937 </r>
       <r>    -9.5126    29.4598   294.0000 </r>
       <r>    -9.4153     0.0000   294.0000 </r>
       <r>    -9.3181     0.0000   294.0000 </r>
       <r>    -9.2208     0.0000   294.0000 </r>
       <r>    -9.1235    41.1115   297.9999 </r>
       <r>    -9.0262     0.0000   298.0000 </r>
       <r>    -8.9289    34.8032   301.3861 </r>
       <r>    -8.8316     0.0000   302.0000 </r>
       <r>    -8.7343    41.1231   306.0010 </r>
       <r>    -8.6370    82.2148   314.0000 </r>
       <r>    -8.5397     0.0007   314.0001 </r>
       <r>    -8.4424    82.1655   321.9943 </r>
       <r>    -8.3451    78.7587   329.6640 </r>
       <r>    -8.2478    34.2439   334.0000 </r>
       <r>    -8.1505     0.0000   334.0000 </r>
       <r>    -8.0532     0.0000   334.0000 </r>
       <r>    -7.9559    19.2797   335.8758 </r>
       <r>    -7.8586    29.4541   340.0000 </r>
       <r>    -7.7614    61.6689   346.0000 </r>
       <r>    -7.6641     0.1650   346.0161 </r>
       <r>    -7.5668    61.5039   352.0000 </r>
       <r>    -7.4695     0.0000   352.0000 </r>
       <r>    -7.3722     0.0000   352.0000 </r>
       <r>    -7.2749     0.0000   352.0000 </r>
       <r>    -7.1776     0.0000   352.0000 </r>
       <r>    -7.0803     0.0000   352.0000 </r>
       <r>    -6.9830     0.0000   352.0000 </r>
       <r>    -6.8857     0.0000   352.0000 </r>
       <r>    -6.7884     0.1038   352.0101 </r>
       <r>    -6.6911    61.5651   358.0000 </r>
       <r>    -6.5938    84.7141   366.2421 </r>
       <r>    -6.4965    61.2411   375.5307 </r>
       <r>    -6.3992    65.5106   385.8144 </r>
       <r>    -6.3019     0.0000   388.0000 </r>
       <r>    -6.2047    28.3499   390.7583 </r>
       <r>    -6.1074    52.6099   399.1186 </r>
       <r>    -6.0101     8.5126   408.0000 </r>
       <r>    -5.9128     0.0000   408.0000 </r>
       <r>    -5.8155     0.0000   408.0000 </r>
       <r>    -5.7182     0.0000   408.0000 </r>
       <r>    -5.6209     0.0000   408.0000 </r>
       <r>    -5.5236     0.0000   408.0000 </r>
       <r>    -5.4263     0.0000   408.0000 </r>
       <r>    -5.3290     0.0000   408.0000 </r>
       <r>    -5.2317     0.0000   408.0000 </r>
       <r>    -5.1344     0.0000   408.0000 </r>
       <r>    -5.0371    61.6689   414.0000 </r>
       <r>    -4.9398     0.0000   414.0000 </r>
       <r>    -4.8425     0.0000   414.0000 </r>
       <r>    -4.7453     0.0000   414.0000 </r>
       <r>    -4.6480     0.0000   414.0000 </r>
       <r>    -4.5507     0.0000   414.0000 </r>
       <r>    -4.4534     0.0000   414.0000 </r>
       <r>    -4.3561     0.0000   414.0000 </r>
       <r>    -4.2588     0.0000   414.0000 </r>
       <r>    -4.1615     0.0000   414.0000 </r>
       <r>    -4.0642     0.0000   414.0000 </r>
       <r>    -3.9669     0.0000   414.0000 </r>
       <r>    -3.8696     0.0000   414.0000 </r>
       <r>    -3.7723     0.0000   414.0000 </r>
       <r>    -3.6750     0.0000   414.0000 </r>
       <r>    -3.5777     0.0000   414.0000 </r>
       <r>    -3.4804     0.0000   414.0000 </r>
       <r>    -3.3831     0.0000   414.0000 </r>
       <r>    -3.2858     0.0000   414.0000 </r>
       <r>    -3.1886    61.6689   420.0000 </r>
       <r>    -3.0913     0.0000   420.0000 </r>
       <r>    -2.9940     0.0000   420.0000 </r>
       <r>    -2.8967    82.2245   427.9999 </r>
       <r>    -2.7994     0.0000   428.0000 </r>
       <r>    -2.7021    20.9440   430.0377 </r>
       <r>    -2.6048     0.0000   434.0000 </r>
       <r>    -2.5075     0.0000   434.0000 </r>
       <r>    -2.4102     0.0000   434.0000 </r>
       <r>    -2.3129     0.0000   434.0000 </r>
       <r>    -2.2156     0.0000   434.0000 </r>
       <r>    -2.1183     0.0000   434.0000 </r>
       <r>    -2.0210     0.0000   434.0000 </r>
       <r>    -1.9237     0.0000   434.0000 </r>
       <r>    -1.8264    61.6697   440.0001 </r>
       <r>    -1.7291    41.1119   444.0000 </r>
       <r>    -1.6319     0.0000   444.0000 </r>
       <r>    -1.5346     0.0000   444.0000 </r>
       <r>    -1.4373    61.6689   450.0000 </r>
       <r>    -1.3400     0.0000   450.0000 </r>
       <r>    -1.2427    61.6689   456.0000 </r>
       <r>    -1.1454     0.0000   456.0000 </r>
       <r>    -1.0481     0.0000   456.0000 </r>
       <r>    -0.9508    61.6689   462.0000 </r>
       <r>    -0.8535     0.0000   462.0000 </r>
       <r>    -0.7562     0.0000   462.0000 </r>
       <r>    -0.6589     0.0000   462.0000 </r>
       <r>    -0.5616     0.0000   462.0000 </r>
       <r>    -0.4643    27.4001   464.6659 </r>
       <r>    -0.3670    82.2252   474.0000 </r>
       <r>    -0.2697    73.3380   481.1353 </r>
       <r>    -0.1724    37.8847   486.8865 </r>
       <r>    -0.0752     0.0000   488.0000 </r>
       <r>     0.0221    38.8348   491.7784 </r>
       <r>     0.1194    18.7958   494.9294 </r>
       <r>     0.2167    56.4624   501.1942 </r>
       <r>     0.3140    49.1342   507.5485 </r>
       <r>     0.4113    91.6464   517.9521 </r>
       <r>     0.5086    92.3064   528.4482 </r>
       <r>     0.6059    65.3312   536.5248 </r>
       <r>     0.7032    48.5253   542.6903 </r>
       <r>     0.8005     5.4749   544.0000 </r>
       <r>     0.8978     0.0000   544.0000 </r>
       <r>     0.9951     0.0000   544.0000 </r>
       <r>     1.0924     0.0000   544.0000 </r>
       <r>     1.1897     0.0000   544.0000 </r>
       <r>     1.2870     0.0000   544.0000 </r>
       <r>     1.3843     0.0000   544.0000 </r>
       <r>     1.4815     0.0000   544.0000 </r>
       <r>     1.5788     0.0000   544.0000 </r>
       <r>     1.6761     0.0000   544.0000 </r>
       <r>     1.7734     0.0000   544.0000 </r>
       <r>     1.8707     0.0000   544.0000 </r>
       <r>     1.9680     0.0000   544.0000 </r>
       <r>     2.0653     0.0000   544.0000 </r>
      </set>
     </set>
    </array>
   </total>
  </dos>
 </calculation>
 <structure name="finalpos" >
  <crystal>
   <varray name="basis" >
    <v>      36.62738140       0.00000000       0.00000000 </v>
    <v>     -18.31369070      31.72024277       0.00000000 </v>
    <v>       0.00000000       0.00000000      20.00000000 </v>
   </varray>
   <i name="volume">  23236.58859872 </i>
   <varray name="rec_basis" >
    <v>       0.02730198       0.01576280       0.00000000 </v>
    <v>       0.00000000       0.03152561       0.00000000 </v>
    <v>       0.00000000       0.00000000       0.05000000 </v>
   </varray>
  </crystal>
  <varray name="positions" >
   <v>       0.37664575       0.68832288       0.49986082 </v>
   <v>       0.31167712       0.62335425       0.49986082 </v>
   <v>       0.31167712       0.68832288       0.49986082 </v>
   <v>       0.62334672       0.31167336       0.49979654 </v>
   <v>       0.68832664       0.37665328       0.49979654 </v>
   <v>       0.68832664       0.31167336       0.49979654 </v>
   <v>       0.48985998       0.51014002       0.61875875 </v>
   <v>       0.51018517       0.48981483       0.61873766 </v>
   <v>       0.48985998       0.97971996       0.61875875 </v>
   <v>       0.51018517       0.02037034       0.61873766 </v>
   <v>       0.02028004       0.51014002       0.61875875 </v>
   <v>       0.97962966       0.48981483       0.61873766 </v>
   <v>       0.52249408       0.47750592       0.43681388 </v>
   <v>       0.47750426       0.52249574       0.43688288 </v>
   <v>       0.52249408       0.04498815       0.43681388 </v>
   <v>       0.47750426       0.95500851       0.43688288 </v>
   <v>       0.95501185       0.47750592       0.43681388 </v>
   <v>       0.04499149       0.52249574       0.43688288 </v>
   <v>       0.35404566       0.70809133       0.49992054 </v>
   <v>       0.35404566       0.64595434       0.49992054 </v>
   <v>       0.29190867       0.64595434       0.49992054 </v>
   <v>       0.37737968       0.62262032       0.50040407 </v>
   <v>       0.42165872       0.64444607       0.50080605 </v>
   <v>       0.44357701       0.62247939       0.50177005 </v>
   <v>       0.42177928       0.57822072       0.50245951 </v>
   <v>       0.37752061       0.55642299       0.50177005 </v>
   <v>       0.35555393       0.57834128       0.50080605 </v>
   <v>       0.37737968       0.75475935       0.50040407 </v>
   <v>       0.42165872       0.77721265       0.50080605 </v>
   <v>       0.44357701       0.82109761       0.50177005 </v>
   <v>       0.42177928       0.84355857       0.50245951 </v>
   <v>       0.37752061       0.82109761       0.50177005 </v>
   <v>       0.35555393       0.77721265       0.50080605 </v>
   <v>       0.24524065       0.62262032       0.50040407 </v>
   <v>       0.22278735       0.64444607       0.50080605 </v>
   <v>       0.17890239       0.62247939       0.50177005 </v>
   <v>       0.15644143       0.57822072       0.50245951 </v>
   <v>       0.17890239       0.55642299       0.50177005 </v>
   <v>       0.22278735       0.57834128       0.50080605 </v>
   <v>       0.64595551       0.29191103       0.49982085 </v>
   <v>       0.64595551       0.35404449       0.49982085 </v>
   <v>       0.70808897       0.35404449       0.49982085 </v>
   <v>       0.62262492       0.37737508       0.50029714 </v>
   <v>       0.57834707       0.35554434       0.50068446 </v>
   <v>       0.55642920       0.37751018       0.50160780 </v>
   <v>       0.57823185       0.42176815       0.50228256 </v>
   <v>       0.62248982       0.44357080       0.50160780 </v>
   <v>       0.64445566       0.42165293       0.50068446 </v>
   <v>       0.62262492       0.24524983       0.50029714 </v>
   <v>       0.57834707       0.22280273       0.50068446 </v>
   <v>       0.55642920       0.17891902       0.50160780 </v>
   <v>       0.57823185       0.15646370       0.50228256 </v>
   <v>       0.62248982       0.17891902       0.50160780 </v>
   <v>       0.64445566       0.22280273       0.50068446 </v>
   <v>       0.75475017       0.37737508       0.50029714 </v>
   <v>       0.77719727       0.35554434       0.50068446 </v>
   <v>       0.82108098       0.37751018       0.50160780 </v>
   <v>       0.84353630       0.42176815       0.50228256 </v>
   <v>       0.82108098       0.44357080       0.50160780 </v>
   <v>       0.77719727       0.42165293       0.50068446 </v>
   <v>       0.52113195       0.47886805       0.55850816 </v>
   <v>       0.54333806       0.45666194       0.56185214 </v>
   <v>       0.44520581       0.55479419       0.50312628 </v>
   <v>       0.45669398       0.54330602       0.56199645 </v>
   <v>       0.47890026       0.52109974       0.55856317 </v>
   <v>       0.52113195       0.04226391       0.55850816 </v>
   <v>       0.54333806       0.08667612       0.56185214 </v>
   <v>       0.44520581       0.89041161       0.50312628 </v>
   <v>       0.45669398       0.91338796       0.56199645 </v>
   <v>       0.47890026       0.95780052       0.55856317 </v>
   <v>       0.95773609       0.47886805       0.55850816 </v>
   <v>       0.91332388       0.45666194       0.56185214 </v>
   <v>       0.10958839       0.55479419       0.50312628 </v>
   <v>       0.08661204       0.54330602       0.56199645 </v>
   <v>       0.04219948       0.52109974       0.55856317 </v>
   <v>       0.55480907       0.44519093       0.50295455 </v>
   <v>       0.54332832       0.45667168       0.44179542 </v>
   <v>       0.51135146       0.48864854       0.49454474 </v>
   <v>       0.48866595       0.51133405       0.49457457 </v>
   <v>       0.45667281       0.54332719       0.44193826 </v>
   <v>       0.55480907       0.10961815       0.50295455 </v>
   <v>       0.54332832       0.08665664       0.44179542 </v>
   <v>       0.51135146       0.02270293       0.49454474 </v>
   <v>       0.48866595       0.97733191       0.49457457 </v>
   <v>       0.45667281       0.91334561       0.44193826 </v>
   <v>       0.89038185       0.44519093       0.50295455 </v>
   <v>       0.91334336       0.45667168       0.44179542 </v>
   <v>       0.97729707       0.48864854       0.49454474 </v>
   <v>       0.02266809       0.51133405       0.49457457 </v>
   <v>       0.08665439       0.54332719       0.44193826 </v>
   <v>       0.47797644       0.83832553       0.50212763 </v>
   <v>       0.43847826       0.75969205       0.50047072 </v>
   <v>       0.36034909       0.83832553       0.50212763 </v>
   <v>       0.32121379       0.75969205       0.50047072 </v>
   <v>       0.24030795       0.67878621       0.50047072 </v>
   <v>       0.16167447       0.63965091       0.50212763 </v>
   <v>       0.24030795       0.56152174       0.50047072 </v>
   <v>       0.16167447       0.52202356       0.50212763 </v>
   <v>       0.32121379       0.56152174       0.50047072 </v>
   <v>       0.36034909       0.52202356       0.50212763 </v>
   <v>       0.47797644       0.63965091       0.50212763 </v>
   <v>       0.43847826       0.67878621       0.50047072 </v>
   <v>       0.52202974       0.16168959       0.50197554 </v>
   <v>       0.56153310       0.24032900       0.50036331 </v>
   <v>       0.63965985       0.16168959       0.50197554 </v>
   <v>       0.67879590       0.24032900       0.50036331 </v>
   <v>       0.75967100       0.32120410       0.50036331 </v>
   <v>       0.83831041       0.36034015       0.50197554 </v>
   <v>       0.75967100       0.43846690       0.50036331 </v>
   <v>       0.83831041       0.47797026       0.50197554 </v>
   <v>       0.67879590       0.43846690       0.50036331 </v>
   <v>       0.63965985       0.47797026       0.50197554 </v>
   <v>       0.52202974       0.36034015       0.50197554 </v>
   <v>       0.56153310       0.32120410       0.50036331 </v>
   <v>       0.55089756       0.44910244       0.61086439 </v>
   <v>       0.44915108       0.55084892       0.61104716 </v>
   <v>       0.55089756       0.10179513       0.61086439 </v>
   <v>       0.44915108       0.89830215       0.61104716 </v>
   <v>       0.89820487       0.44910244       0.61086439 </v>
   <v>       0.10169785       0.55084892       0.61104716 </v>
   <v>       0.55210065       0.44789935       0.39465474 </v>
   <v>       0.44789336       0.55210664       0.39481492 </v>
   <v>       0.55210065       0.10420131       0.39465474 </v>
   <v>       0.44789336       0.89578671       0.39481492 </v>
   <v>       0.89579869       0.44789935       0.39465474 </v>
   <v>       0.10421329       0.55210664       0.39481492 </v>
  </varray>
 </structure>
</modeling>
