<?xml version="1.0" encoding="ISO-8859-1"?>
<modeling>
 <generator>
  <i name="program" type="string">vasp </i>
  <i name="version" type="string">5.4.4.18Apr17-6-g9f103f2a35  </i>
  <i name="subversion" type="string">(build Jun 07 2020 16:50:00) complex            parallel </i>
  <i name="platform" type="string">LinuxIFC </i>
  <i name="date" type="string">2023 02 17 </i>
  <i name="time" type="string">09:32:23 </i>
 </generator>
 <incar>
  <i type="string" name="SYSTEM">Simulation for cell shape cell volume r</i>
  <i type="int" name="ISTART">     1</i>
  <i type="string" name="PREC">high</i>
  <i type="string" name="ALGO">48</i>
  <i type="int" name="ICHARG">    11</i>
  <i type="int" name="NELM">   200</i>
  <i type="int" name="IBRION">    -1</i>
  <i name="EDIFF">      0.00001000</i>
  <i name="EDIFFG">     -0.01000000</i>
  <i type="int" name="NSW">     0</i>
  <i type="int" name="ISIF">     2</i>
  <i name="ENCUT">    500.00000000</i>
  <i name="POTIM">      0.30000000</i>
  <i type="string" name="LREAL">A</i>
  <i type="int" name="ISMEAR">     0</i>
  <i name="SIGMA">      0.01000000</i>
  <i type="int" name="NWRITE">     0</i>
  <i type="logical" name="LWAVE"> F  </i>
  <i type="logical" name="LCHARG"> F  </i>
  <v type="int" name="KPOINT_BSE">    -1     0     0     0</v>
  <i type="int" name="NELM">   200</i>
  <i type="string" name="GGA">PE</i>
 </incar>
 <structure name="primitive_cell" >
  <crystal>
   <varray name="basis" >
    <v>      22.15173643      -0.01625805       0.00000000 </v>
    <v>     -11.08986203      19.24186895       0.00000000 </v>
    <v>       0.00000000       0.00000000      20.00000000 </v>
   </varray>
   <i name="volume">   8521.21019590 </i>
   <varray name="rec_basis" >
    <v>       0.04516229       0.02602884       0.00000000 </v>
    <v>       0.00003816       0.05199200       0.00000000 </v>
    <v>       0.00000000       0.00000000       0.05000000 </v>
   </varray>
  </crystal>
  <varray name="positions" >
   <v>       0.37798974      -0.26104595       0.46509759 </v>
   <v>       0.40690175      -0.30441049       0.46466640 </v>
   <v>       0.30543717      -0.28981976       0.46544657 </v>
   <v>       0.42222242      -0.18792600       0.46524706 </v>
   <v>       0.47326311      -0.17556378       0.46486907 </v>
   <v>       0.46341477      -0.28166775       0.46457204 </v>
   <v>       0.28262081      -0.25620055       0.46584299 </v>
   <v>       0.36318851      -0.37675681       0.46509672 </v>
   <v>       0.26194107      -0.36204406       0.46590202 </v>
   <v>       0.41181063      -0.14928985      -0.47926501 </v>
   <v>       0.35697751      -0.16212044      -0.48070181 </v>
   <v>       0.42082251      -0.16592567      -0.43021128 </v>
   <v>       0.29082367      -0.40557934       0.46542464 </v>
   <v>       0.41647016      -0.13102105       0.40333871 </v>
   <v>       0.39216919      -0.42089409       0.46538437 </v>
   <v>       0.18869486      -0.39116039       0.46668262 </v>
   <v>       0.45881939      -0.07253239      -0.48904706 </v>
   <v>       0.42600345      -0.08281075       0.39334460 </v>
   <v>       0.17608031      -0.35278449       0.46740771 </v>
   <v>       0.25716361      -0.46194470       0.46581241 </v>
   <v>       0.48470900      -0.35487605      -0.48291427 </v>
   <v>       0.46280378      -0.04318124       0.44772897 </v>
   <v>       0.44249293      -0.40936652      -0.47997843 </v>
   <v>       0.35353963      -0.47178622       0.46607115 </v>
   <v>       0.41800844      -0.41690530      -0.43046491 </v>
   <v>       0.45402498      -0.41634363       0.40257791 </v>
   <v>       0.16650375      -0.41715678      -0.42924826 </v>
   <v>       0.14999320      -0.44155001      -0.47882766 </v>
   <v>       0.49789096      -0.02884401      -0.43632942 </v>
   <v>       0.16287931      -0.48334122      -0.48160830 </v>
   <v>       0.49483451      -0.05590584      -0.37367914 </v>
   <v>       0.13158808      -0.45315821       0.40352990 </v>
   <v>       0.49241727      -0.42638129       0.39242966 </v>
   <v>      -0.49532345       0.02840919       0.43695612 </v>
   <v>       0.47167106      -0.45691469      -0.48939571 </v>
   <v>       0.47841371       0.01581368       0.34551716 </v>
   <v>       0.07304567      -0.47126993      -0.48847960 </v>
   <v>      -0.47535739      -0.01626501      -0.34501180 </v>
   <v>      -0.46049469       0.04279741      -0.44706601 </v>
   <v>       0.08327267      -0.49164628       0.39332404 </v>
   <v>       0.49584962      -0.46233105       0.44721857 </v>
   <v>      -0.49175778       0.05542768       0.37419771 </v>
   <v>      -0.45656285       0.07213926       0.48973605 </v>
   <v>       0.04358652      -0.49544749       0.44809101 </v>
   <v>       0.47670739      -0.49525650      -0.43629471 </v>
   <v>       0.45421253      -0.49042173      -0.37343734 </v>
   <v>       0.05646436      -0.45413257      -0.37255103 </v>
   <v>       0.02929999      -0.47675090      -0.43543404 </v>
   <v>      -0.42385891       0.08257772      -0.39269354 </v>
   <v>      -0.47517490       0.49506454       0.43662778 </v>
   <v>      -0.46272864      -0.48020133       0.34484326 </v>
   <v>       0.46377233       0.47975613      -0.34452946 </v>
   <v>      -0.41003591       0.14895843       0.48006024 </v>
   <v>      -0.02816236       0.47516304       0.43742335 </v>
   <v>       0.01684029      -0.46420856      -0.34364944 </v>
   <v>      -0.41492595       0.13056884      -0.40254822 </v>
   <v>      -0.01558283       0.46288669       0.34563386 </v>
   <v>      -0.49441700       0.46205261      -0.44689600 </v>
   <v>      -0.41877868       0.16543695       0.43081896 </v>
   <v>      -0.35508615       0.16225248       0.48199649 </v>
   <v>      -0.45265968       0.49032556       0.37374052 </v>
   <v>      -0.04245011       0.49384009      -0.44608554 </v>
   <v>      -0.47015254       0.45669436       0.48972748 </v>
   <v>      -0.47239572       0.17491530      -0.46499483 </v>
   <v>      -0.05526280       0.45280336       0.37445524 </v>
   <v>      -0.07191726       0.46956247       0.49050623 </v>
   <v>      -0.42135353       0.18731940      -0.46481946 </v>
   <v>      -0.49122645       0.42590707      -0.39215666 </v>
   <v>      -0.08210380       0.49021861      -0.39138543 </v>
   <v>      -0.44090298       0.40918277       0.48028827 </v>
   <v>      -0.45283491       0.41583706      -0.40220072 </v>
   <v>      -0.37707670       0.26038436      -0.46414000 </v>
   <v>      -0.13050100       0.45180754      -0.40158778 </v>
   <v>      -0.14885224       0.43993413       0.48093043 </v>
   <v>      -0.28189594       0.25524265      -0.46378719 </v>
   <v>      -0.41621017       0.41693041       0.43083850 </v>
   <v>      -0.16160012       0.48183571       0.48331876 </v>
   <v>      -0.35209548       0.47140176      -0.46544638 </v>
   <v>      -0.48310123       0.35465215       0.48298097 </v>
   <v>      -0.16556912       0.41512099       0.43154284 </v>
   <v>      -0.39080101       0.42052698      -0.46491752 </v>
   <v>      -0.30455608       0.28899717      -0.46370720 </v>
   <v>      -0.46231503       0.28125077      -0.46446899 </v>
   <v>      -0.17531781       0.35145080      -0.46461222 </v>
   <v>      -0.18763340       0.39005392      -0.46417906 </v>
   <v>      -0.40580253       0.30391481      -0.46406640 </v>
   <v>      -0.26089847       0.36118089      -0.46383549 </v>
   <v>      -0.36195454       0.37625549      -0.46421926 </v>
   <v>      -0.25577792       0.46125861      -0.46406423 </v>
   <v>      -0.28958456       0.40490085      -0.46380948 </v>
  </varray>
 </structure>
 <varray name="primitive_index" >
  <v type="int" >        1 </v>
  <v type="int" >        2 </v>
  <v type="int" >        6 </v>
  <v type="int" >       37 </v>
  <v type="int" >       58 </v>
  <v type="int" >       57 </v>
  <v type="int" >       56 </v>
  <v type="int" >        3 </v>
  <v type="int" >        5 </v>
  <v type="int" >       28 </v>
  <v type="int" >       82 </v>
  <v type="int" >       81 </v>
  <v type="int" >        4 </v>
  <v type="int" >       67 </v>
  <v type="int" >       39 </v>
  <v type="int" >       38 </v>
  <v type="int" >       27 </v>
  <v type="int" >       43 </v>
  <v type="int" >       59 </v>
  <v type="int" >       55 </v>
  <v type="int" >       90 </v>
  <v type="int" >       14 </v>
  <v type="int" >       36 </v>
  <v type="int" >       60 </v>
  <v type="int" >       89 </v>
  <v type="int" >       75 </v>
  <v type="int" >       85 </v>
  <v type="int" >       32 </v>
  <v type="int" >       26 </v>
  <v type="int" >       86 </v>
  <v type="int" >       49 </v>
  <v type="int" >       71 </v>
  <v type="int" >       47 </v>
  <v type="int" >       15 </v>
  <v type="int" >       35 </v>
  <v type="int" >       68 </v>
  <v type="int" >       31 </v>
  <v type="int" >       79 </v>
  <v type="int" >       25 </v>
  <v type="int" >       45 </v>
  <v type="int" >       22 </v>
  <v type="int" >       44 </v>
  <v type="int" >       13 </v>
  <v type="int" >       18 </v>
  <v type="int" >       34 </v>
  <v type="int" >       53 </v>
  <v type="int" >       51 </v>
  <v type="int" >       30 </v>
  <v type="int" >       50 </v>
  <v type="int" >       23 </v>
  <v type="int" >       76 </v>
  <v type="int" >       87 </v>
  <v type="int" >       16 </v>
  <v type="int" >       19 </v>
  <v type="int" >       83 </v>
  <v type="int" >       80 </v>
  <v type="int" >       72 </v>
  <v type="int" >       33 </v>
  <v type="int" >       70 </v>
  <v type="int" >       69 </v>
  <v type="int" >       48 </v>
  <v type="int" >       29 </v>
  <v type="int" >       21 </v>
  <v type="int" >       64 </v>
  <v type="int" >       46 </v>
  <v type="int" >       17 </v>
  <v type="int" >       40 </v>
  <v type="int" >       54 </v>
  <v type="int" >       52 </v>
  <v type="int" >       24 </v>
  <v type="int" >       88 </v>
  <v type="int" >        7 </v>
  <v type="int" >       84 </v>
  <v type="int" >       20 </v>
  <v type="int" >       62 </v>
  <v type="int" >       78 </v>
  <v type="int" >       73 </v>
  <v type="int" >       66 </v>
  <v type="int" >       77 </v>
  <v type="int" >       74 </v>
  <v type="int" >       42 </v>
  <v type="int" >       12 </v>
  <v type="int" >       63 </v>
  <v type="int" >       65 </v>
  <v type="int" >       41 </v>
  <v type="int" >        8 </v>
  <v type="int" >       11 </v>
  <v type="int" >        9 </v>
  <v type="int" >       61 </v>
  <v type="int" >       10 </v>
 </varray>
 <kpoints>
  <generation param="listgenerated">
   <i name="divisions" type="int">      20 </i>
   <v>       0.00000000       0.00000000       0.00000000 </v>
   <v>       0.50000000       0.00000000       0.00000000 </v>
   <v>       0.33333333       0.33333333       0.00000000 </v>
   <v>       0.00000000       0.00000000       0.00000000 </v>
  </generation>
  <varray name="kpointlist" >
   <v>       0.00000000       0.00000000       0.00000000 </v>
   <v>       0.02631579       0.00000000       0.00000000 </v>
   <v>       0.05263158       0.00000000       0.00000000 </v>
   <v>       0.07894737       0.00000000       0.00000000 </v>
   <v>       0.10526316       0.00000000       0.00000000 </v>
   <v>       0.13157895       0.00000000       0.00000000 </v>
   <v>       0.15789474       0.00000000       0.00000000 </v>
   <v>       0.18421053       0.00000000       0.00000000 </v>
   <v>       0.21052632       0.00000000       0.00000000 </v>
   <v>       0.23684211       0.00000000       0.00000000 </v>
   <v>       0.26315789       0.00000000       0.00000000 </v>
   <v>       0.28947368       0.00000000       0.00000000 </v>
   <v>       0.31578947       0.00000000       0.00000000 </v>
   <v>       0.34210526       0.00000000       0.00000000 </v>
   <v>       0.36842105       0.00000000       0.00000000 </v>
   <v>       0.39473684       0.00000000       0.00000000 </v>
   <v>       0.42105263       0.00000000       0.00000000 </v>
   <v>       0.44736842       0.00000000       0.00000000 </v>
   <v>       0.47368421       0.00000000       0.00000000 </v>
   <v>       0.50000000       0.00000000       0.00000000 </v>
   <v>       0.50000000       0.00000000       0.00000000 </v>
   <v>       0.49122807       0.01754386       0.00000000 </v>
   <v>       0.48245614       0.03508772       0.00000000 </v>
   <v>       0.47368421       0.05263158       0.00000000 </v>
   <v>       0.46491228       0.07017544       0.00000000 </v>
   <v>       0.45614035       0.08771930       0.00000000 </v>
   <v>       0.44736842       0.10526316       0.00000000 </v>
   <v>       0.43859649       0.12280702       0.00000000 </v>
   <v>       0.42982456       0.14035088       0.00000000 </v>
   <v>       0.42105263       0.15789474       0.00000000 </v>
   <v>       0.41228070       0.17543860       0.00000000 </v>
   <v>       0.40350877       0.19298246       0.00000000 </v>
   <v>       0.39473684       0.21052632       0.00000000 </v>
   <v>       0.38596491       0.22807018       0.00000000 </v>
   <v>       0.37719298       0.24561404       0.00000000 </v>
   <v>       0.36842105       0.26315789       0.00000000 </v>
   <v>       0.35964912       0.28070175       0.00000000 </v>
   <v>       0.35087719       0.29824561       0.00000000 </v>
   <v>       0.34210526       0.31578947       0.00000000 </v>
   <v>       0.33333333       0.33333333       0.00000000 </v>
   <v>       0.33333333       0.33333333       0.00000000 </v>
   <v>       0.31578947       0.31578947       0.00000000 </v>
   <v>       0.29824561       0.29824561       0.00000000 </v>
   <v>       0.28070175       0.28070175       0.00000000 </v>
   <v>       0.26315789       0.26315789       0.00000000 </v>
   <v>       0.24561404       0.24561404       0.00000000 </v>
   <v>       0.22807018       0.22807018       0.00000000 </v>
   <v>       0.21052632       0.21052632       0.00000000 </v>
   <v>       0.19298246       0.19298246       0.00000000 </v>
   <v>       0.17543860       0.17543860       0.00000000 </v>
   <v>       0.15789474       0.15789474       0.00000000 </v>
   <v>       0.14035088       0.14035088       0.00000000 </v>
   <v>       0.12280702       0.12280702       0.00000000 </v>
   <v>       0.10526316       0.10526316       0.00000000 </v>
   <v>       0.08771930       0.08771930       0.00000000 </v>
   <v>       0.07017544       0.07017544       0.00000000 </v>
   <v>       0.05263158       0.05263158       0.00000000 </v>
   <v>       0.03508772       0.03508772       0.00000000 </v>
   <v>       0.01754386       0.01754386       0.00000000 </v>
   <v>       0.00000000       0.00000000       0.00000000 </v>
  </varray>
  <varray name="weights" >
   <v>       0.01666667 </v>
   <v>       0.01666667 </v>
   <v>       0.01666667 </v>
   <v>       0.01666667 </v>
   <v>       0.01666667 </v>
   <v>       0.01666667 </v>
   <v>       0.01666667 </v>
   <v>       0.01666667 </v>
   <v>       0.01666667 </v>
   <v>       0.01666667 </v>
   <v>       0.01666667 </v>
   <v>       0.01666667 </v>
   <v>       0.01666667 </v>
   <v>       0.01666667 </v>
   <v>       0.01666667 </v>
   <v>       0.01666667 </v>
   <v>       0.01666667 </v>
   <v>       0.01666667 </v>
   <v>       0.01666667 </v>
   <v>       0.01666667 </v>
   <v>       0.01666667 </v>
   <v>       0.01666667 </v>
   <v>       0.01666667 </v>
   <v>       0.01666667 </v>
   <v>       0.01666667 </v>
   <v>       0.01666667 </v>
   <v>       0.01666667 </v>
   <v>       0.01666667 </v>
   <v>       0.01666667 </v>
   <v>       0.01666667 </v>
   <v>       0.01666667 </v>
   <v>       0.01666667 </v>
   <v>       0.01666667 </v>
   <v>       0.01666667 </v>
   <v>       0.01666667 </v>
   <v>       0.01666667 </v>
   <v>       0.01666667 </v>
   <v>       0.01666667 </v>
   <v>       0.01666667 </v>
   <v>       0.01666667 </v>
   <v>       0.01666667 </v>
   <v>       0.01666667 </v>
   <v>       0.01666667 </v>
   <v>       0.01666667 </v>
   <v>       0.01666667 </v>
   <v>       0.01666667 </v>
   <v>       0.01666667 </v>
   <v>       0.01666667 </v>
   <v>       0.01666667 </v>
   <v>       0.01666667 </v>
   <v>       0.01666667 </v>
   <v>       0.01666667 </v>
   <v>       0.01666667 </v>
   <v>       0.01666667 </v>
   <v>       0.01666667 </v>
   <v>       0.01666667 </v>
   <v>       0.01666667 </v>
   <v>       0.01666667 </v>
   <v>       0.01666667 </v>
   <v>       0.01666667 </v>
  </varray>
 </kpoints>
 <parameters>
  <separator name="general" >
   <i type="string" name="SYSTEM">Simulation for cell shape cell volume r</i>
   <i type="logical" name="LCOMPAT"> F  </i>
  </separator>
  <separator name="electronic" >
   <i type="string" name="PREC">high</i>
   <i name="ENMAX">    500.00000000</i>
   <i name="ENAUG">    644.87300000</i>
   <i name="EDIFF">      0.00001000</i>
   <i type="int" name="IALGO">    38</i>
   <i type="int" name="IWAVPR">    10</i>
   <i type="int" name="NBANDS">   192</i>
   <i name="NELECT">    282.00000000</i>
   <i type="int" name="TURBO">     0</i>
   <i type="int" name="IRESTART">     0</i>
   <i type="int" name="NREBOOT">     0</i>
   <i type="int" name="NMIN">     0</i>
   <i name="EREF">      0.00000000</i>
   <separator name="electronic smearing" >
    <i type="int" name="ISMEAR">     0</i>
    <i name="SIGMA">      0.01000000</i>
    <i name="KSPACING">      0.50000000</i>
    <i type="logical" name="KGAMMA"> T  </i>
   </separator>
   <separator name="electronic projectors" >
    <i type="logical" name="LREAL"> T  </i>
    <v name="ROPT">     -0.00040000     -0.00040000     -0.00040000     -0.00040000</v>
    <i type="int" name="LMAXPAW">  -100</i>
    <i type="int" name="LMAXMIX">     2</i>
    <i type="logical" name="NLSPLINE"> F  </i>
   </separator>
   <separator name="electronic startup" >
    <i type="int" name="ISTART">     1</i>
    <i type="int" name="ICHARG">    11</i>
    <i type="int" name="INIWAV">     1</i>
   </separator>
   <separator name="electronic spin" >
    <i type="int" name="ISPIN">     1</i>
    <i type="logical" name="LNONCOLLINEAR"> F  </i>
    <v name="MAGMOM">      1.00000000      1.00000000      1.00000000      1.00000000      1.00000000      1.00000000      1.00000000      1.00000000      1.00000000      1.00000000      1.00000000      1.00000000      1.00000000      1.00000000      1.00000000      1.00000000      1.00000000      1.00000000      1.00000000      1.00000000
      1.00000000      1.00000000      1.00000000      1.00000000      1.00000000      1.00000000      1.00000000      1.00000000      1.00000000      1.00000000      1.00000000      1.00000000      1.00000000      1.00000000      1.00000000      1.00000000      1.00000000      1.00000000      1.00000000      1.00000000
      1.00000000      1.00000000      1.00000000      1.00000000      1.00000000      1.00000000      1.00000000      1.00000000      1.00000000      1.00000000      1.00000000      1.00000000      1.00000000      1.00000000      1.00000000      1.00000000      1.00000000      1.00000000      1.00000000      1.00000000
      1.00000000      1.00000000      1.00000000      1.00000000      1.00000000      1.00000000      1.00000000      1.00000000      1.00000000      1.00000000      1.00000000      1.00000000      1.00000000      1.00000000      1.00000000      1.00000000      1.00000000      1.00000000      1.00000000      1.00000000
      1.00000000      1.00000000      1.00000000      1.00000000      1.00000000      1.00000000      1.00000000      1.00000000      1.00000000      1.00000000</v>
    <i name="NUPDOWN">     -1.00000000</i>
    <i type="logical" name="LSORBIT"> F  </i>
    <v name="SAXIS">      0.00000000      0.00000000      1.00000000</v>
    <i type="logical" name="LSPIRAL"> F  </i>
    <v name="QSPIRAL">      0.00000000      0.00000000      0.00000000</v>
    <i type="logical" name="LZEROZ"> F  </i>
   </separator>
   <separator name="electronic exchange-correlation" >
    <i type="logical" name="LASPH"> F  </i>
    <i type="logical" name="LMETAGGA"> F  </i>
   </separator>
   <separator name="electronic convergence" >
    <i type="int" name="NELM">   200</i>
    <i type="int" name="NELMDL">     0</i>
    <i type="int" name="NELMIN">     2</i>
    <i name="ENINI">    500.00000000</i>
    <separator name="electronic convergence detail" >
     <i type="logical" name="LDIAG"> T  </i>
     <i type="logical" name="LSUBROT"> F  </i>
     <i name="WEIMIN">      0.00000000</i>
     <i name="EBREAK">      0.00000001</i>
     <i name="DEPER">      0.30000000</i>
     <i type="int" name="NRMM">     4</i>
     <i name="TIME">      0.40000000</i>
    </separator>
   </separator>
   <separator name="electronic mixer" >
    <i name="AMIX">      0.40000000</i>
    <i name="BMIX">      1.00000000</i>
    <i name="AMIN">      0.10000000</i>
    <i name="AMIX_MAG">      1.60000000</i>
    <i name="BMIX_MAG">      1.00000000</i>
    <separator name="electronic mixer details" >
     <i type="int" name="IMIX">     4</i>
     <i type="logical" name="MIXFIRST"> F  </i>
     <i type="int" name="MAXMIX">   -45</i>
     <i name="WC">    100.00000000</i>
     <i type="int" name="INIMIX">     1</i>
     <i type="int" name="MIXPRE">     1</i>
     <i type="int" name="MREMOVE">     5</i>
    </separator>
   </separator>
   <separator name="electronic dipolcorrection" >
    <i type="logical" name="LDIPOL"> F  </i>
    <i type="logical" name="LMONO"> F  </i>
    <i type="int" name="IDIPOL">     0</i>
    <i name="EPSILON">      1.00000000</i>
    <v name="DIPOL">   -100.00000000   -100.00000000   -100.00000000</v>
    <i name="EFIELD">      0.00000000</i>
   </separator>
  </separator>
  <separator name="grids" >
   <i type="int" name="NGX">   162</i>
   <i type="int" name="NGY">   162</i>
   <i type="int" name="NGZ">   150</i>
   <i type="int" name="NGXF">   250</i>
   <i type="int" name="NGYF">   250</i>
   <i type="int" name="NGZF">   224</i>
   <i type="logical" name="ADDGRID"> F  </i>
  </separator>
  <separator name="ionic" >
   <i type="int" name="NSW">     0</i>
   <i type="int" name="IBRION">    -1</i>
   <i type="int" name="MDALGO">     0</i>
   <i type="int" name="ISIF">     2</i>
   <i name="PSTRESS">      0.00000000</i>
   <i name="EDIFFG">     -0.01000000</i>
   <i type="int" name="NFREE">     0</i>
   <i name="POTIM">      0.30000000</i>
   <i name="SMASS">     -3.00000000</i>
   <i name="SCALEE">      1.00000000</i>
  </separator>
  <separator name="ionic md" >
   <i name="TEBEG">      0.00010000</i>
   <i name="TEEND">      0.00010000</i>
   <i type="int" name="NBLOCK">     1</i>
   <i type="int" name="KBLOCK">     1</i>
   <i type="int" name="NPACO">   256</i>
   <i name="APACO">     16.00000000</i>
  </separator>
  <separator name="symmetry" >
   <i type="int" name="ISYM">     2</i>
   <i name="SYMPREC">      0.00001000</i>
  </separator>
  <separator name="dos" >
   <i type="int" name="LORBIT">     0</i>
   <v name="RWIGS">     -1.00000000     -1.00000000     -1.00000000     -1.00000000</v>
   <i type="int" name="NEDOS">   301</i>
   <i name="EMIN">     10.00000000</i>
   <i name="EMAX">    -10.00000000</i>
   <i name="EFERMI">      0.00000000</i>
  </separator>
  <separator name="writing" >
   <i type="int" name="NWRITE">     0</i>
   <i type="logical" name="LWAVE"> F  </i>
   <i type="logical" name="LDOWNSAMPLE"> F  </i>
   <i type="logical" name="LCHARG"> F  </i>
   <i type="logical" name="LPARD"> F  </i>
   <i type="logical" name="LVTOT"> F  </i>
   <i type="logical" name="LVHAR"> F  </i>
   <i type="logical" name="LELF"> F  </i>
   <i type="logical" name="LOPTICS"> F  </i>
   <v name="STM">      0.00000000      0.00000000      0.00000000      0.00000000      0.00000000      0.00000000      0.00000000</v>
  </separator>
  <separator name="performance" >
   <i type="int" name="NPAR">    16</i>
   <i type="int" name="NSIM">     4</i>
   <i type="int" name="NBLK">    -1</i>
   <i type="logical" name="LPLANE"> T  </i>
   <i type="logical" name="LSCALAPACK"> T  </i>
   <i type="logical" name="LSCAAWARE"> F  </i>
   <i type="logical" name="LSCALU"> F  </i>
   <i type="logical" name="LASYNC"> F  </i>
   <i type="logical" name="LORBITALREAL"> F  </i>
  </separator>
  <separator name="miscellaneous" >
   <i type="int" name="IDIOT">     3</i>
   <i type="int" name="ISPECIAL">     0</i>
   <i type="logical" name="LMUSIC"> F  </i>
   <v name="POMASS">     12.01100000     14.00100000     16.00000000      1.00000000</v>
   <v name="DARWINR">      0.00000000      0.00000000      0.00000000      0.00000000</v>
   <v name="DARWINV">      1.00000000      1.00000000      1.00000000      1.00000000</v>
   <i type="logical" name="LCORR"> T  </i>
  </separator>
  <i type="logical" name="GGA_COMPAT"> T  </i>
  <i type="logical" name="LBERRY"> F  </i>
  <i type="int" name="ICORELEVEL">     0</i>
  <i type="logical" name="LDAU"> F  </i>
  <i type="int" name="I_CONSTRAINED_M">     0</i>
  <separator name="electronic exchange-correlation" >
   <i type="string" name="GGA">PE</i>
   <i type="int" name="VOSKOWN">     0</i>
   <i type="logical" name="LHFCALC"> F  </i>
   <i type="string" name="PRECFOCK"></i>
   <i type="logical" name="LSYMGRAD"> F  </i>
   <i type="logical" name="LHFONE"> F  </i>
   <i type="logical" name="LRHFCALC"> F  </i>
   <i type="logical" name="LTHOMAS"> F  </i>
   <i type="logical" name="LMODELHF"> F  </i>
   <i name="ENCUT4O">     -1.00000000</i>
   <i type="int" name="EXXOEP">     0</i>
   <i type="int" name="FOURORBIT">     0</i>
   <i name="AEXX">      0.00000000</i>
   <i name="HFALPHA">      0.00000000</i>
   <i name="MCALPHA">      0.00000000</i>
   <i name="ALDAX">      1.00000000</i>
   <i name="AGGAX">      1.00000000</i>
   <i name="ALDAC">      1.00000000</i>
   <i name="AGGAC">      1.00000000</i>
   <i type="int" name="NKREDX">     1</i>
   <i type="int" name="NKREDY">     1</i>
   <i type="int" name="NKREDZ">     1</i>
   <i type="logical" name="SHIFTRED"> F  </i>
   <i type="logical" name="ODDONLY"> F  </i>
   <i type="logical" name="EVENONLY"> F  </i>
   <i type="int" name="LMAXFOCK">     0</i>
   <i type="int" name="NMAXFOCKAE">     0</i>
   <i type="logical" name="LFOCKAEDFT"> F  </i>
   <i name="HFSCREEN">      0.00000000</i>
   <i name="HFSCREENC">      0.00000000</i>
   <i type="int" name="NBANDSGWLOW">     0</i>
  </separator>
  <separator name="vdW DFT" >
   <i type="logical" name="LUSE_VDW"> F  </i>
   <i name="Zab_VDW">     -0.84910000</i>
   <i name="PARAM1">      0.12340000</i>
   <i name="PARAM2">      1.00000000</i>
   <i name="PARAM3">      0.00000000</i>
  </separator>
  <separator name="model GW" >
   <i type="int" name="MODEL_GW">     0</i>
   <i name="MODEL_EPS0">     56.80806797</i>
   <i name="MODEL_ALPHA">      1.00000000</i>
  </separator>
  <separator name="linear response parameters" >
   <i type="logical" name="LEPSILON"> F  </i>
   <i type="logical" name="LRPA"> F  </i>
   <i type="logical" name="LNABLA"> F  </i>
   <i type="logical" name="LVEL"> F  </i>
   <i type="int" name="KINTER">     0</i>
   <i name="CSHIFT">      0.10000000</i>
   <i name="OMEGAMAX">     -1.00000000</i>
   <i name="DEG_THRESHOLD">      0.00200000</i>
   <i name="RTIME">     -0.10000000</i>
   <i name="WPLASMAI">      0.00000000</i>
   <v name="DFIELD">      0.00000000      0.00000000      0.00000000</v>
   <v name="WPLASMA">      0.00000000      0.00000000      0.00000000      0.00000000      0.00000000      0.00000000      0.00000000      0.00000000      0.00000000</v>
  </separator>
  <separator name="orbital magnetization" >
   <i type="logical" name="NUCIND"> F  </i>
   <v name="MAGPOS">      0.00000000      0.00000000      0.00000000</v>
   <i type="logical" name="LNICSALL"> T  </i>
   <i type="logical" name="ORBITALMAG"> F  </i>
   <i type="logical" name="LMAGBLOCH"> F  </i>
   <i type="logical" name="LCHIMAG"> F  </i>
   <i type="logical" name="LGAUGE"> T  </i>
   <i type="int" name="MAGATOM">     0</i>
   <v name="MAGDIPOL">      0.00000000      0.00000000      0.00000000</v>
   <v name="AVECCONST">      0.00000000      0.00000000      0.00000000</v>
  </separator>
  <separator name="response functions" >
   <i type="logical" name="LADDER"> F  </i>
   <i type="logical" name="LRPAFORCE"> F  </i>
   <i type="logical" name="LFXC"> F  </i>
   <i type="logical" name="LHARTREE"> T  </i>
   <i type="int" name="IBSE">     0</i>
   <v type="int" name="KPOINT">    -1     0     0     0</v>
   <i type="logical" name="LTCTE"> F  </i>
   <i type="logical" name="LTETE"> F  </i>
   <i type="logical" name="LTRIPLET"> F  </i>
   <i type="logical" name="LFXCEPS"> F  </i>
   <i type="logical" name="LFXHEG"> F  </i>
   <i type="int" name="NATURALO">     2</i>
   <i type="logical" name="L2ORDER"> F  </i>
   <i type="logical" name="LMP2LT"> F  </i>
   <i type="logical" name="LUSEW"> F  </i>
   <i name="ENCUTGW">     -2.00000000</i>
   <i name="ENCUTGWSOFT">     -2.00000000</i>
   <i name="ENCUTLF">     -1.00000000</i>
   <i type="int" name="LMAXMP2">    -1</i>
   <i name="SCISSOR">      0.00000000</i>
   <i type="int" name="NOMEGA">     0</i>
   <i type="int" name="NOMEGAR">     0</i>
   <i type="int" name="NBANDSGW">    -1</i>
   <i type="int" name="NBANDSO">    -1</i>
   <i type="int" name="NBANDSV">    -1</i>
   <i type="int" name="NELM">   200</i>
   <i type="int" name="NELMHF">     1</i>
   <i type="int" name="DIM">     3</i>
   <i type="int" name="ANTIRES">     0</i>
   <i name="OMEGAMAX">    -30.00000000</i>
   <i name="OMEGAMIN">    -30.00000000</i>
   <i name="OMEGATL">   -200.00000000</i>
   <i type="int" name="OMEGAGRID">   140</i>
   <i name="CSHIFT">     -0.10000000</i>
   <i type="logical" name="SELFENERGY"> F  </i>
   <i type="logical" name="LSPECTRAL"> F  </i>
   <i type="logical" name="LSPECTRALGW"> F  </i>
   <i type="logical" name="LSINGLES"> F  </i>
   <i type="logical" name="LFERMIGW"> F  </i>
   <i type="logical" name="ODDONLYGW"> F  </i>
   <i type="logical" name="EVENONLYGW"> F  </i>
   <i type="int" name="NKREDLFX">     1</i>
   <i type="int" name="NKREDLFY">     1</i>
   <i type="int" name="NKREDLFZ">     1</i>
   <i type="int" name="MAXMEM">  2800</i>
   <i type="int" name="TELESCOPE">     0</i>
   <i type="int" name="TAUPAR">     1</i>
   <i type="int" name="OMEGAPAR">    -1</i>
   <i name="LAMBDA">      1.00000000</i>
  </separator>
  <separator name="External order field" >
   <i name="OFIELD_KAPPA">      0.00000000</i>
   <v name="OFIELD_K">      0.00000000      0.00000000      0.00000000</v>
   <i name="OFIELD_Q6_NEAR">      0.00000000</i>
   <i name="OFIELD_Q6_FAR">      0.00000000</i>
   <i name="OFIELD_A">      0.00000000</i>
  </separator>
  <separator name="solvation model" >
   <i type="logical" name="LSOL"> F  </i>
  </separator>
 </parameters>
 <atominfo>
  <atoms>      90 </atoms>
  <types>       4 </types>
  <array name="atoms" >
   <dimension dim="1">ion</dimension>
   <field type="string">element</field>
   <field type="int">atomtype</field>
   <set>
    <rc><c>C </c><c>   1</c></rc>
    <rc><c>C </c><c>   1</c></rc>
    <rc><c>C </c><c>   1</c></rc>
    <rc><c>C </c><c>   1</c></rc>
    <rc><c>C </c><c>   1</c></rc>
    <rc><c>C </c><c>   1</c></rc>
    <rc><c>C </c><c>   1</c></rc>
    <rc><c>C </c><c>   1</c></rc>
    <rc><c>C </c><c>   1</c></rc>
    <rc><c>C </c><c>   1</c></rc>
    <rc><c>C </c><c>   1</c></rc>
    <rc><c>C </c><c>   1</c></rc>
    <rc><c>C </c><c>   1</c></rc>
    <rc><c>C </c><c>   1</c></rc>
    <rc><c>C </c><c>   1</c></rc>
    <rc><c>C </c><c>   1</c></rc>
    <rc><c>C </c><c>   1</c></rc>
    <rc><c>C </c><c>   1</c></rc>
    <rc><c>C </c><c>   1</c></rc>
    <rc><c>C </c><c>   1</c></rc>
    <rc><c>C </c><c>   1</c></rc>
    <rc><c>C </c><c>   1</c></rc>
    <rc><c>C </c><c>   1</c></rc>
    <rc><c>C </c><c>   1</c></rc>
    <rc><c>C </c><c>   1</c></rc>
    <rc><c>C </c><c>   1</c></rc>
    <rc><c>C </c><c>   1</c></rc>
    <rc><c>C </c><c>   1</c></rc>
    <rc><c>C </c><c>   1</c></rc>
    <rc><c>C </c><c>   1</c></rc>
    <rc><c>C </c><c>   1</c></rc>
    <rc><c>C </c><c>   1</c></rc>
    <rc><c>C </c><c>   1</c></rc>
    <rc><c>C </c><c>   1</c></rc>
    <rc><c>C </c><c>   1</c></rc>
    <rc><c>C </c><c>   1</c></rc>
    <rc><c>N </c><c>   2</c></rc>
    <rc><c>N </c><c>   2</c></rc>
    <rc><c>N </c><c>   2</c></rc>
    <rc><c>N </c><c>   2</c></rc>
    <rc><c>N </c><c>   2</c></rc>
    <rc><c>N </c><c>   2</c></rc>
    <rc><c>O </c><c>   3</c></rc>
    <rc><c>O </c><c>   3</c></rc>
    <rc><c>O </c><c>   3</c></rc>
    <rc><c>O </c><c>   3</c></rc>
    <rc><c>O </c><c>   3</c></rc>
    <rc><c>O </c><c>   3</c></rc>
    <rc><c>O </c><c>   3</c></rc>
    <rc><c>O </c><c>   3</c></rc>
    <rc><c>O </c><c>   3</c></rc>
    <rc><c>O </c><c>   3</c></rc>
    <rc><c>O </c><c>   3</c></rc>
    <rc><c>O </c><c>   3</c></rc>
    <rc><c>H </c><c>   4</c></rc>
    <rc><c>H </c><c>   4</c></rc>
    <rc><c>H </c><c>   4</c></rc>
    <rc><c>H </c><c>   4</c></rc>
    <rc><c>H </c><c>   4</c></rc>
    <rc><c>H </c><c>   4</c></rc>
    <rc><c>H </c><c>   4</c></rc>
    <rc><c>H </c><c>   4</c></rc>
    <rc><c>H </c><c>   4</c></rc>
    <rc><c>H </c><c>   4</c></rc>
    <rc><c>H </c><c>   4</c></rc>
    <rc><c>H </c><c>   4</c></rc>
    <rc><c>H </c><c>   4</c></rc>
    <rc><c>H </c><c>   4</c></rc>
    <rc><c>H </c><c>   4</c></rc>
    <rc><c>H </c><c>   4</c></rc>
    <rc><c>H </c><c>   4</c></rc>
    <rc><c>H </c><c>   4</c></rc>
    <rc><c>H </c><c>   4</c></rc>
    <rc><c>H </c><c>   4</c></rc>
    <rc><c>H </c><c>   4</c></rc>
    <rc><c>H </c><c>   4</c></rc>
    <rc><c>H </c><c>   4</c></rc>
    <rc><c>H </c><c>   4</c></rc>
    <rc><c>H </c><c>   4</c></rc>
    <rc><c>H </c><c>   4</c></rc>
    <rc><c>H </c><c>   4</c></rc>
    <rc><c>H </c><c>   4</c></rc>
    <rc><c>H </c><c>   4</c></rc>
    <rc><c>H </c><c>   4</c></rc>
    <rc><c>H </c><c>   4</c></rc>
    <rc><c>H </c><c>   4</c></rc>
    <rc><c>H </c><c>   4</c></rc>
    <rc><c>H </c><c>   4</c></rc>
    <rc><c>H </c><c>   4</c></rc>
    <rc><c>H </c><c>   4</c></rc>
   </set>
  </array>
  <array name="atomtypes" >
   <dimension dim="1">type</dimension>
   <field type="int">atomspertype</field>
   <field type="string">element</field>
   <field>mass</field>
   <field>valence</field>
   <field type="string">pseudopotential</field>
   <set>
    <rc><c>  36</c><c>C </c><c>     12.01100000</c><c>      4.00000000</c><c>  PAW_PBE C 08Apr2002                   </c></rc>
    <rc><c>   6</c><c>N </c><c>     14.00100000</c><c>      5.00000000</c><c>  PAW_PBE N 08Apr2002                   </c></rc>
    <rc><c>  12</c><c>O </c><c>     16.00000000</c><c>      6.00000000</c><c>  PAW_PBE O 08Apr2002                   </c></rc>
    <rc><c>  36</c><c>H </c><c>      1.00000000</c><c>      1.00000000</c><c>  PAW_PBE H 15Jun2001                   </c></rc>
   </set>
  </array>
 </atominfo>
 <structure name="initialpos" >
  <crystal>
   <varray name="basis" >
    <v>      22.15173643      -0.01625805       0.00000000 </v>
    <v>     -11.08986203      19.24186895       0.00000000 </v>
    <v>       0.00000000       0.00000000      20.00000000 </v>
   </varray>
   <i name="volume">   8521.21019590 </i>
   <varray name="rec_basis" >
    <v>       0.04516229       0.02602884       0.00000000 </v>
    <v>       0.00003816       0.05199200       0.00000000 </v>
    <v>       0.00000000       0.00000000       0.05000000 </v>
   </varray>
  </crystal>
  <varray name="positions" >
   <v>       0.37798974       0.73895405       0.46509759 </v>
   <v>       0.40690175       0.69558951       0.46466640 </v>
   <v>       0.36318851       0.62324319       0.46509672 </v>
   <v>       0.29082367       0.59442066       0.46542464 </v>
   <v>       0.26194107       0.63795594       0.46590202 </v>
   <v>       0.30543717       0.71018024       0.46544657 </v>
   <v>       0.62292330       0.26038436       0.53586000 </v>
   <v>       0.59419747       0.30391481       0.53593360 </v>
   <v>       0.63804546       0.37625549       0.53578074 </v>
   <v>       0.71041544       0.40490085       0.53619052 </v>
   <v>       0.73910153       0.36118089       0.53616451 </v>
   <v>       0.69544392       0.28899717       0.53629280 </v>
   <v>       0.54343715       0.07213926       0.48973605 </v>
   <v>       0.46280378       0.95681876       0.44772897 </v>
   <v>       0.50467655       0.02840919       0.43695612 </v>
   <v>       0.58996409       0.14895843       0.48006024 </v>
   <v>       0.92808274       0.46956247       0.49050623 </v>
   <v>       0.04358652       0.50455251       0.44809101 </v>
   <v>       0.97183764       0.47516304       0.43742335 </v>
   <v>       0.85114776       0.43993413       0.48093043 </v>
   <v>       0.52984746       0.45669436       0.48972748 </v>
   <v>       0.49584962       0.53766895       0.44721857 </v>
   <v>       0.52482510       0.49506454       0.43662778 </v>
   <v>       0.55909702       0.40918277       0.48028827 </v>
   <v>       0.53950531       0.04279741       0.55293399 </v>
   <v>       0.49789096       0.97115599       0.56367058 </v>
   <v>       0.45881939       0.92746761       0.51095294 </v>
   <v>       0.41181063       0.85071015       0.52073499 </v>
   <v>       0.95754989       0.49384009       0.55391446 </v>
   <v>       0.02929999       0.52324910       0.56456596 </v>
   <v>       0.07304567       0.52873007       0.51152040 </v>
   <v>       0.14999320       0.55844999       0.52117234 </v>
   <v>       0.50558300       0.46205261       0.55310400 </v>
   <v>       0.47670739       0.50474350       0.56370529 </v>
   <v>       0.47167106       0.54308531       0.51060429 </v>
   <v>       0.44249293       0.59063348       0.52002157 </v>
   <v>       0.42222242       0.81207400       0.46524706 </v>
   <v>       0.18869486       0.60883961       0.46668262 </v>
   <v>       0.39216919       0.57910591       0.46538437 </v>
   <v>       0.57864647       0.18731940       0.53518054 </v>
   <v>       0.81236660       0.39005392       0.53582094 </v>
   <v>       0.60919899       0.42052698       0.53508248 </v>
   <v>       0.42600345       0.91718925       0.39334460 </v>
   <v>       0.50824222       0.05542768       0.37419771 </v>
   <v>       0.08327267       0.50835372       0.39332404 </v>
   <v>       0.94473720       0.45280336       0.37445524 </v>
   <v>       0.49241727       0.57361871       0.39242966 </v>
   <v>       0.54734032       0.49032556       0.37374052 </v>
   <v>       0.49483451       0.94409416       0.62632086 </v>
   <v>       0.57614109       0.08257772       0.60730646 </v>
   <v>       0.05646436       0.54586743       0.62744897 </v>
   <v>       0.91789620       0.49021861       0.60861457 </v>
   <v>       0.45421253       0.50957827       0.62656266 </v>
   <v>       0.50877355       0.42590707       0.60784334 </v>
   <v>       0.25716361       0.53805530       0.46581241 </v>
   <v>       0.28262081       0.74379945       0.46584299 </v>
   <v>       0.46341477       0.71833225       0.46457204 </v>
   <v>       0.47326311       0.82443622       0.46486907 </v>
   <v>       0.17608031       0.64721551       0.46740771 </v>
   <v>       0.35353963       0.52821378       0.46607115 </v>
   <v>       0.74422208       0.46125861       0.53593577 </v>
   <v>       0.71810406       0.25524265       0.53621281 </v>
   <v>       0.53768497       0.28125077       0.53553101 </v>
   <v>       0.52760428       0.17491530       0.53500517 </v>
   <v>       0.82468219       0.35145080       0.53538778 </v>
   <v>       0.64790452       0.47140176       0.53455362 </v>
   <v>       0.41647016       0.86897895       0.40333871 </v>
   <v>       0.47841371       0.01581368       0.34551716 </v>
   <v>       0.64491385       0.16225248       0.48199649 </v>
   <v>       0.58122132       0.16543695       0.43081896 </v>
   <v>       0.13158808       0.54684179       0.40352990 </v>
   <v>       0.98441717       0.46288669       0.34563386 </v>
   <v>       0.83839988       0.48183571       0.48331876 </v>
   <v>       0.83443088       0.41512099       0.43154284 </v>
   <v>       0.45402498       0.58365637       0.40257791 </v>
   <v>       0.53727136       0.51979867       0.34484326 </v>
   <v>       0.51689877       0.35465215       0.48298097 </v>
   <v>       0.58378983       0.41693041       0.43083850 </v>
   <v>       0.52464261       0.98373499       0.65498820 </v>
   <v>       0.58507405       0.13056884       0.59745178 </v>
   <v>       0.42082251       0.83407433       0.56978872 </v>
   <v>       0.35697751       0.83787956       0.51929819 </v>
   <v>       0.01684029       0.53579144       0.65635056 </v>
   <v>       0.86949900       0.45180754       0.59841222 </v>
   <v>       0.16650375       0.58284322       0.57075174 </v>
   <v>       0.16287931       0.51665878       0.51839170 </v>
   <v>       0.46377233       0.47975613       0.65547054 </v>
   <v>       0.54716509       0.41583706       0.59779928 </v>
   <v>       0.41800844       0.58309470       0.56953509 </v>
   <v>       0.48470900       0.64512395       0.51708573 </v>
  </varray>
 </structure>
 <calculation>
  <scstep>
   <time name="dav">  259.51  262.13</time>
   <time name="total">  259.64  262.27</time>
   <energy>
    <i name="alphaZ">     40.84535911 </i>
    <i name="ewald">  32106.91700969 </i>
    <i name="hartreedc"> -42587.65132873 </i>
    <i name="XCdc">   1063.38221566 </i>
    <i name="pawpsdc">  24607.51293112 </i>
    <i name="pawaedc"> -24666.26875782 </i>
    <i name="eentropy">     -0.00000000 </i>
    <i name="bandstr">  -3673.45423909 </i>
    <i name="atom">  12522.34096768 </i>
    <i name="e_fr_energy">   -586.37584239 </i>
    <i name="e_wo_entrp">   -586.37584239 </i>
    <i name="e_0_energy">   -586.37584239 </i>
   </energy>
  </scstep>
  <scstep>
   <time name="dav">  284.26  287.12</time>
   <time name="total">  284.26  287.13</time>
   <energy>
    <i name="e_fr_energy">   -587.07155958 </i>
    <i name="e_wo_entrp">   -587.07155958 </i>
    <i name="e_0_energy">   -587.07155958 </i>
   </energy>
  </scstep>
  <scstep>
   <time name="dav">  315.26  318.55</time>
   <time name="total">  315.26  318.55</time>
   <energy>
    <i name="e_fr_energy">   -587.08921470 </i>
    <i name="e_wo_entrp">   -587.08921470 </i>
    <i name="e_0_energy">   -587.08921470 </i>
   </energy>
  </scstep>
  <scstep>
   <time name="dav">  285.66  288.60</time>
   <time name="total">  285.66  288.61</time>
   <energy>
    <i name="e_fr_energy">   -587.08971361 </i>
    <i name="e_wo_entrp">   -587.08971361 </i>
    <i name="e_0_energy">   -587.08971361 </i>
   </energy>
  </scstep>
  <scstep>
   <time name="dav">  280.77  283.68</time>
   <time name="total">  280.77  283.68</time>
   <energy>
    <i name="e_fr_energy">   -587.08974261 </i>
    <i name="e_wo_entrp">   -587.08974261 </i>
    <i name="e_0_energy">   -587.08974261 </i>
   </energy>
  </scstep>
  <scstep>
   <time name="dav">  232.40  234.91</time>
   <time name="total">  232.41  234.91</time>
   <energy>
    <i name="alphaZ">     40.84535911 </i>
    <i name="ewald">  32106.91700969 </i>
    <i name="hartreedc"> -42587.65132873 </i>
    <i name="XCdc">   1063.38221566 </i>
    <i name="pawpsdc">  24607.51293112 </i>
    <i name="pawaedc"> -24666.26875782 </i>
    <i name="eentropy">     -0.00000000 </i>
    <i name="bandstr">  -3674.16814076 </i>
    <i name="atom">  12522.34096768 </i>
    <i name="e_fr_energy">   -587.08974405 </i>
    <i name="e_wo_entrp">   -587.08974405 </i>
    <i name="e_0_energy">   -587.08974405 </i>
   </energy>
  </scstep>
  <structure>
   <crystal>
    <varray name="basis" >
     <v>      22.15173643      -0.01625805       0.00000000 </v>
     <v>     -11.08986203      19.24186895       0.00000000 </v>
     <v>       0.00000000       0.00000000      20.00000000 </v>
    </varray>
    <i name="volume">   8521.21019590 </i>
    <varray name="rec_basis" >
     <v>       0.04516229       0.02602884       0.00000000 </v>
     <v>       0.00003816       0.05199200       0.00000000 </v>
     <v>       0.00000000       0.00000000       0.05000000 </v>
    </varray>
   </crystal>
   <varray name="positions" >
    <v>       0.37798974       0.73895405       0.46509759 </v>
    <v>       0.40690175       0.69558951       0.46466640 </v>
    <v>       0.36318851       0.62324319       0.46509672 </v>
    <v>       0.29082367       0.59442066       0.46542464 </v>
    <v>       0.26194107       0.63795594       0.46590202 </v>
    <v>       0.30543717       0.71018024       0.46544657 </v>
    <v>       0.62292330       0.26038436       0.53586000 </v>
    <v>       0.59419747       0.30391481       0.53593360 </v>
    <v>       0.63804546       0.37625549       0.53578074 </v>
    <v>       0.71041544       0.40490085       0.53619052 </v>
    <v>       0.73910153       0.36118089       0.53616451 </v>
    <v>       0.69544392       0.28899717       0.53629280 </v>
    <v>       0.54343715       0.07213926       0.48973605 </v>
    <v>       0.46280378       0.95681876       0.44772897 </v>
    <v>       0.50467655       0.02840919       0.43695612 </v>
    <v>       0.58996409       0.14895843       0.48006024 </v>
    <v>       0.92808274       0.46956247       0.49050623 </v>
    <v>       0.04358652       0.50455251       0.44809101 </v>
    <v>       0.97183764       0.47516304       0.43742335 </v>
    <v>       0.85114776       0.43993413       0.48093043 </v>
    <v>       0.52984746       0.45669436       0.48972748 </v>
    <v>       0.49584962       0.53766895       0.44721857 </v>
    <v>       0.52482510       0.49506454       0.43662778 </v>
    <v>       0.55909702       0.40918277       0.48028827 </v>
    <v>       0.53950531       0.04279741       0.55293399 </v>
    <v>       0.49789096       0.97115599       0.56367058 </v>
    <v>       0.45881939       0.92746761       0.51095294 </v>
    <v>       0.41181063       0.85071015       0.52073499 </v>
    <v>       0.95754989       0.49384009       0.55391446 </v>
    <v>       0.02929999       0.52324910       0.56456596 </v>
    <v>       0.07304567       0.52873007       0.51152040 </v>
    <v>       0.14999320       0.55844999       0.52117234 </v>
    <v>       0.50558300       0.46205261       0.55310400 </v>
    <v>       0.47670739       0.50474350       0.56370529 </v>
    <v>       0.47167106       0.54308531       0.51060429 </v>
    <v>       0.44249293       0.59063348       0.52002157 </v>
    <v>       0.42222242       0.81207400       0.46524706 </v>
    <v>       0.18869486       0.60883961       0.46668262 </v>
    <v>       0.39216919       0.57910591       0.46538437 </v>
    <v>       0.57864647       0.18731940       0.53518054 </v>
    <v>       0.81236660       0.39005392       0.53582094 </v>
    <v>       0.60919899       0.42052698       0.53508248 </v>
    <v>       0.42600345       0.91718925       0.39334460 </v>
    <v>       0.50824222       0.05542768       0.37419771 </v>
    <v>       0.08327267       0.50835372       0.39332404 </v>
    <v>       0.94473720       0.45280336       0.37445524 </v>
    <v>       0.49241727       0.57361871       0.39242966 </v>
    <v>       0.54734032       0.49032556       0.37374052 </v>
    <v>       0.49483451       0.94409416       0.62632086 </v>
    <v>       0.57614109       0.08257772       0.60730646 </v>
    <v>       0.05646436       0.54586743       0.62744897 </v>
    <v>       0.91789620       0.49021861       0.60861457 </v>
    <v>       0.45421253       0.50957827       0.62656266 </v>
    <v>       0.50877355       0.42590707       0.60784334 </v>
    <v>       0.25716361       0.53805530       0.46581241 </v>
    <v>       0.28262081       0.74379945       0.46584299 </v>
    <v>       0.46341477       0.71833225       0.46457204 </v>
    <v>       0.47326311       0.82443622       0.46486907 </v>
    <v>       0.17608031       0.64721551       0.46740771 </v>
    <v>       0.35353963       0.52821378       0.46607115 </v>
    <v>       0.74422208       0.46125861       0.53593577 </v>
    <v>       0.71810406       0.25524265       0.53621281 </v>
    <v>       0.53768497       0.28125077       0.53553101 </v>
    <v>       0.52760428       0.17491530       0.53500517 </v>
    <v>       0.82468219       0.35145080       0.53538778 </v>
    <v>       0.64790452       0.47140176       0.53455362 </v>
    <v>       0.41647016       0.86897895       0.40333871 </v>
    <v>       0.47841371       0.01581368       0.34551716 </v>
    <v>       0.64491385       0.16225248       0.48199649 </v>
    <v>       0.58122132       0.16543695       0.43081896 </v>
    <v>       0.13158808       0.54684179       0.40352990 </v>
    <v>       0.98441717       0.46288669       0.34563386 </v>
    <v>       0.83839988       0.48183571       0.48331876 </v>
    <v>       0.83443088       0.41512099       0.43154284 </v>
    <v>       0.45402498       0.58365637       0.40257791 </v>
    <v>       0.53727136       0.51979867       0.34484326 </v>
    <v>       0.51689877       0.35465215       0.48298097 </v>
    <v>       0.58378983       0.41693041       0.43083850 </v>
    <v>       0.52464261       0.98373499       0.65498820 </v>
    <v>       0.58507405       0.13056884       0.59745178 </v>
    <v>       0.42082251       0.83407433       0.56978872 </v>
    <v>       0.35697751       0.83787956       0.51929819 </v>
    <v>       0.01684029       0.53579144       0.65635056 </v>
    <v>       0.86949900       0.45180754       0.59841222 </v>
    <v>       0.16650375       0.58284322       0.57075174 </v>
    <v>       0.16287931       0.51665878       0.51839170 </v>
    <v>       0.46377233       0.47975613       0.65547054 </v>
    <v>       0.54716509       0.41583706       0.59779928 </v>
    <v>       0.41800844       0.58309470       0.56953509 </v>
    <v>       0.48470900       0.64512395       0.51708573 </v>
   </varray>
  </structure>
  <varray name="forces" >
   <v>      -0.00276880       0.00645743      -0.00040471 </v>
   <v>      -0.00123551      -0.00286607       0.00030199 </v>
   <v>      -0.00241990      -0.00494210       0.00286940 </v>
   <v>      -0.00083614       0.00334192       0.00099579 </v>
   <v>      -0.00039136       0.00211485      -0.00211885 </v>
   <v>      -0.00084722       0.00036561       0.00206388 </v>
   <v>      -0.00197871       0.00620524      -0.00332694 </v>
   <v>      -0.00707494       0.00012353       0.00126377 </v>
   <v>      -0.00047818       0.00060804      -0.00206508 </v>
   <v>      -0.00294426       0.00116330       0.00145244 </v>
   <v>      -0.00105877       0.00081639      -0.00482460 </v>
   <v>       0.00797245       0.00058239       0.00454922 </v>
   <v>      -0.00129341      -0.00501057      -0.00191505 </v>
   <v>      -0.00242890      -0.00470055       0.00396226 </v>
   <v>      -0.00139999      -0.00115602      -0.00090182 </v>
   <v>       0.00404442       0.00327410      -0.00443930 </v>
   <v>      -0.00133270      -0.00074308      -0.00067591 </v>
   <v>       0.00297986      -0.00065196      -0.00431009 </v>
   <v>       0.00282102       0.00121827      -0.00295641 </v>
   <v>      -0.00282630      -0.00102216       0.00167050 </v>
   <v>       0.00227737      -0.00406764       0.00103866 </v>
   <v>       0.00124185      -0.00224038      -0.00442959 </v>
   <v>       0.00057960      -0.00431807       0.00294186 </v>
   <v>       0.00141797      -0.00388906      -0.00243036 </v>
   <v>      -0.00116896      -0.00364714      -0.00121149 </v>
   <v>       0.00015796       0.00658487      -0.00471707 </v>
   <v>       0.00092880      -0.00078882      -0.00082806 </v>
   <v>       0.00260718      -0.00210439       0.00060473 </v>
   <v>      -0.00015874      -0.00080399       0.00713811 </v>
   <v>       0.00051965      -0.00341640      -0.00190888 </v>
   <v>      -0.00162940       0.00285226       0.00236450 </v>
   <v>      -0.00190361      -0.00297688       0.00532633 </v>
   <v>       0.00780060      -0.00402726       0.00368387 </v>
   <v>       0.00225855      -0.00136664      -0.00162488 </v>
   <v>       0.00147231       0.00468720      -0.00534862 </v>
   <v>       0.00154429      -0.00153089       0.00119849 </v>
   <v>      -0.00358554      -0.00013607      -0.00596887 </v>
   <v>       0.00203426       0.00413289      -0.00340961 </v>
   <v>       0.00096239      -0.00046357      -0.00704111 </v>
   <v>      -0.00172460       0.00168801       0.00238580 </v>
   <v>       0.00395469      -0.00210021       0.00055178 </v>
   <v>      -0.00279298       0.00058436      -0.00481548 </v>
   <v>       0.00403836       0.00398797       0.00210581 </v>
   <v>      -0.00397112       0.00436274      -0.00592106 </v>
   <v>      -0.00102995       0.00130546       0.00690833 </v>
   <v>      -0.00269239       0.00017538       0.00444678 </v>
   <v>      -0.00394326      -0.00118628       0.00166563 </v>
   <v>       0.00059851      -0.00533747       0.00197472 </v>
   <v>      -0.00217287       0.00282942      -0.00036654 </v>
   <v>       0.00395195      -0.00520614       0.00280152 </v>
   <v>       0.00517352      -0.00289499       0.00104341 </v>
   <v>       0.00468690       0.00381360       0.00286764 </v>
   <v>      -0.00542940       0.00286561       0.00705820 </v>
   <v>       0.00260033       0.00135471      -0.00240021 </v>
   <v>      -0.00010574      -0.00560972       0.00218790 </v>
   <v>       0.00380642      -0.00025624       0.00120243 </v>
   <v>      -0.00012953      -0.00020342       0.00008769 </v>
   <v>      -0.00033865      -0.00418204       0.00166419 </v>
   <v>      -0.00027785       0.00268051       0.00143321 </v>
   <v>      -0.00209445      -0.00324844       0.00321262 </v>
   <v>       0.00041011      -0.00064110       0.00145936 </v>
   <v>       0.00106421       0.00107468      -0.00068367 </v>
   <v>       0.00494231       0.00515932      -0.00157104 </v>
   <v>       0.00094952      -0.00211839      -0.00298373 </v>
   <v>      -0.00102859       0.00273401      -0.00064118 </v>
   <v>       0.00148857      -0.00353349      -0.00153361 </v>
   <v>      -0.00339248      -0.00104644      -0.00118828 </v>
   <v>       0.00232367      -0.00086058       0.00267576 </v>
   <v>       0.00173964       0.00028182       0.00287459 </v>
   <v>      -0.00036469      -0.00408812      -0.00135627 </v>
   <v>       0.00046399       0.00266676      -0.00015688 </v>
   <v>       0.00092544       0.00400049      -0.00321295 </v>
   <v>      -0.00187081       0.00422941      -0.00002136 </v>
   <v>       0.00062911       0.00008494       0.00067126 </v>
   <v>      -0.00278108       0.00100962      -0.00013886 </v>
   <v>      -0.00050520       0.00174256      -0.00349121 </v>
   <v>      -0.00057460       0.00418321       0.00151217 </v>
   <v>      -0.00690670      -0.00108920       0.00673430 </v>
   <v>      -0.00453214      -0.00372738      -0.00143993 </v>
   <v>      -0.00425179       0.00510685      -0.00051597 </v>
   <v>      -0.00302449       0.00103736      -0.00250688 </v>
   <v>      -0.00224218       0.00245766       0.00116027 </v>
   <v>      -0.00017633      -0.00393954      -0.00198170 </v>
   <v>      -0.00110716      -0.00222783      -0.00168497 </v>
   <v>       0.00230137      -0.00280419      -0.00130043 </v>
   <v>       0.00279002      -0.00118252      -0.00166993 </v>
   <v>       0.00775752       0.00085114       0.00075712 </v>
   <v>      -0.00233926       0.00221414      -0.00057682 </v>
   <v>       0.00130473      -0.00010857       0.00453665 </v>
   <v>       0.00004024       0.00545202      -0.00038862 </v>
  </varray>
  <varray name="stress" >
   <v>       0.39282464      -0.03125762       0.00702163 </v>
   <v>      -0.03125761       0.33956381      -0.00421617 </v>
   <v>       0.00702163      -0.00421617      -0.28044596 </v>
  </varray>
  <energy>
   <i name="e_fr_energy">   -588.99949586 </i>
   <i name="e_wo_entrp">   -588.99949586 </i>
   <i name="e_0_energy">     -0.00000000 </i>
  </energy>
  <time name="totalsc"> 1954.62 1975.78</time>
  <eigenvalues>
   <array>
    <dimension dim="1">band</dimension>
    <dimension dim="2">kpoint</dimension>
    <dimension dim="3">spin</dimension>
    <field>eigene</field>
    <field>occ</field>
    <set>
     <set comment="spin 1">
      <set comment="kpoint 1">
       <r>  -26.2369    1.0000 </r>
       <r>  -26.2351    1.0000 </r>
       <r>  -26.2284    1.0000 </r>
       <r>  -26.1589    1.0000 </r>
       <r>  -26.1571    1.0000 </r>
       <r>  -26.1505    1.0000 </r>
       <r>  -25.4869    1.0000 </r>
       <r>  -25.4858    1.0000 </r>
       <r>  -25.4801    1.0000 </r>
       <r>  -25.4418    1.0000 </r>
       <r>  -25.4407    1.0000 </r>
       <r>  -25.4347    1.0000 </r>
       <r>  -23.5260    1.0000 </r>
       <r>  -23.5200    1.0000 </r>
       <r>  -23.2400    1.0000 </r>
       <r>  -23.2342    1.0000 </r>
       <r>  -23.2316    1.0000 </r>
       <r>  -23.2265    1.0000 </r>
       <r>  -20.8690    1.0000 </r>
       <r>  -20.6450    1.0000 </r>
       <r>  -20.6184    1.0000 </r>
       <r>  -20.6129    1.0000 </r>
       <r>  -20.2570    1.0000 </r>
       <r>  -19.2436    1.0000 </r>
       <r>  -19.2388    1.0000 </r>
       <r>  -18.7082    1.0000 </r>
       <r>  -18.4570    1.0000 </r>
       <r>  -18.4547    1.0000 </r>
       <r>  -17.8016    1.0000 </r>
       <r>  -17.7999    1.0000 </r>
       <r>  -17.3371    1.0000 </r>
       <r>  -17.3340    1.0000 </r>
       <r>  -17.3277    1.0000 </r>
       <r>  -17.3028    1.0000 </r>
       <r>  -17.0733    1.0000 </r>
       <r>  -17.0704    1.0000 </r>
       <r>  -16.0123    1.0000 </r>
       <r>  -16.0065    1.0000 </r>
       <r>  -15.8513    1.0000 </r>
       <r>  -15.0835    1.0000 </r>
       <r>  -15.0789    1.0000 </r>
       <r>  -14.9557    1.0000 </r>
       <r>  -14.6879    1.0000 </r>
       <r>  -14.6860    1.0000 </r>
       <r>  -14.6115    1.0000 </r>
       <r>  -14.6074    1.0000 </r>
       <r>  -14.4942    1.0000 </r>
       <r>  -14.3663    1.0000 </r>
       <r>  -14.3646    1.0000 </r>
       <r>  -14.0180    1.0000 </r>
       <r>  -13.8866    1.0000 </r>
       <r>  -13.8821    1.0000 </r>
       <r>  -13.6041    1.0000 </r>
       <r>  -13.5052    1.0000 </r>
       <r>  -12.7894    1.0000 </r>
       <r>  -12.7862    1.0000 </r>
       <r>  -12.7600    1.0000 </r>
       <r>  -12.4997    1.0000 </r>
       <r>  -12.4141    1.0000 </r>
       <r>  -12.1225    1.0000 </r>
       <r>  -12.1197    1.0000 </r>
       <r>  -12.0872    1.0000 </r>
       <r>  -11.9976    1.0000 </r>
       <r>  -11.9962    1.0000 </r>
       <r>  -11.9584    1.0000 </r>
       <r>  -11.9512    1.0000 </r>
       <r>  -11.9480    1.0000 </r>
       <r>  -11.8384    1.0000 </r>
       <r>  -11.4088    1.0000 </r>
       <r>  -11.4053    1.0000 </r>
       <r>  -11.3479    1.0000 </r>
       <r>  -11.1965    1.0000 </r>
       <r>  -11.1931    1.0000 </r>
       <r>  -10.9974    1.0000 </r>
       <r>  -10.8492    1.0000 </r>
       <r>  -10.8462    1.0000 </r>
       <r>  -10.6845    1.0000 </r>
       <r>  -10.6795    1.0000 </r>
       <r>  -10.6152    1.0000 </r>
       <r>  -10.6097    1.0000 </r>
       <r>  -10.3892    1.0000 </r>
       <r>  -10.3859    1.0000 </r>
       <r>  -10.2753    1.0000 </r>
       <r>  -10.2704    1.0000 </r>
       <r>  -10.1731    1.0000 </r>
       <r>   -9.9788    1.0000 </r>
       <r>   -9.9743    1.0000 </r>
       <r>   -9.9675    1.0000 </r>
       <r>   -9.7880    1.0000 </r>
       <r>   -9.5580    1.0000 </r>
       <r>   -9.4939    1.0000 </r>
       <r>   -9.4908    1.0000 </r>
       <r>   -9.4132    1.0000 </r>
       <r>   -9.3521    1.0000 </r>
       <r>   -9.3467    1.0000 </r>
       <r>   -9.2093    1.0000 </r>
       <r>   -9.2078    1.0000 </r>
       <r>   -9.2044    1.0000 </r>
       <r>   -9.1474    1.0000 </r>
       <r>   -9.0194    1.0000 </r>
       <r>   -9.0167    1.0000 </r>
       <r>   -8.9271    1.0000 </r>
       <r>   -8.9184    1.0000 </r>
       <r>   -8.9166    1.0000 </r>
       <r>   -8.8327    1.0000 </r>
       <r>   -8.7638    1.0000 </r>
       <r>   -8.7631    1.0000 </r>
       <r>   -8.6628    1.0000 </r>
       <r>   -8.6577    1.0000 </r>
       <r>   -8.4673    1.0000 </r>
       <r>   -8.4483    1.0000 </r>
       <r>   -8.4454    1.0000 </r>
       <r>   -8.4416    1.0000 </r>
       <r>   -8.1071    1.0000 </r>
       <r>   -8.1046    1.0000 </r>
       <r>   -7.9674    1.0000 </r>
       <r>   -7.8446    1.0000 </r>
       <r>   -7.8416    1.0000 </r>
       <r>   -7.7426    1.0000 </r>
       <r>   -7.7382    1.0000 </r>
       <r>   -7.7227    1.0000 </r>
       <r>   -7.6887    1.0000 </r>
       <r>   -7.3713    1.0000 </r>
       <r>   -7.3634    1.0000 </r>
       <r>   -7.1163    1.0000 </r>
       <r>   -7.1085    1.0000 </r>
       <r>   -6.2248    1.0000 </r>
       <r>   -6.1944    1.0000 </r>
       <r>   -6.1898    1.0000 </r>
       <r>   -5.8286    1.0000 </r>
       <r>   -5.8079    1.0000 </r>
       <r>   -5.1231    1.0000 </r>
       <r>   -5.1198    1.0000 </r>
       <r>   -5.0897    1.0000 </r>
       <r>   -5.0858    1.0000 </r>
       <r>   -4.9856    1.0000 </r>
       <r>   -4.9630    1.0000 </r>
       <r>   -4.9576    1.0000 </r>
       <r>   -4.0094    1.0000 </r>
       <r>   -4.0073    1.0000 </r>
       <r>   -4.0030    1.0000 </r>
       <r>   -1.0320    0.0000 </r>
       <r>   -1.0284    0.0000 </r>
       <r>   -0.9725    0.0000 </r>
       <r>   -0.9682    0.0000 </r>
       <r>   -0.7459    0.0000 </r>
       <r>   -0.6118    0.0000 </r>
       <r>   -0.5545    0.0000 </r>
       <r>   -0.5501    0.0000 </r>
       <r>   -0.2985    0.0000 </r>
       <r>   -0.2965    0.0000 </r>
       <r>   -0.1351    0.0000 </r>
       <r>   -0.0482    0.0000 </r>
       <r>   -0.0455    0.0000 </r>
       <r>    0.0262    0.0000 </r>
       <r>    0.2625    0.0000 </r>
       <r>    0.2626    0.0000 </r>
       <r>    0.2685    0.0000 </r>
       <r>    0.2698    0.0000 </r>
       <r>    0.3617    0.0000 </r>
       <r>    0.3704    0.0000 </r>
       <r>    0.3737    0.0000 </r>
       <r>    0.3845    0.0000 </r>
       <r>    0.4492    0.0000 </r>
       <r>    0.6151    0.0000 </r>
       <r>    0.7107    0.0000 </r>
       <r>    0.7429    0.0000 </r>
       <r>    0.7910    0.0000 </r>
       <r>    0.8412    0.0000 </r>
       <r>    0.8429    0.0000 </r>
       <r>    0.8825    0.0000 </r>
       <r>    0.8849    0.0000 </r>
       <r>    0.9449    0.0000 </r>
       <r>    0.9470    0.0000 </r>
       <r>    1.0307    0.0000 </r>
       <r>    1.0332    0.0000 </r>
       <r>    1.0364    0.0000 </r>
       <r>    1.0416    0.0000 </r>
       <r>    1.1382    0.0000 </r>
       <r>    1.1999    0.0000 </r>
       <r>    1.2691    0.0000 </r>
       <r>    1.2841    0.0000 </r>
       <r>    1.3283    0.0000 </r>
       <r>    1.3307    0.0000 </r>
       <r>    1.3568    0.0000 </r>
       <r>    1.3618    0.0000 </r>
       <r>    1.3861    0.0000 </r>
       <r>    1.3867    0.0000 </r>
       <r>    1.4682    0.0000 </r>
       <r>    1.4729    0.0000 </r>
       <r>    1.5088    0.0000 </r>
       <r>    1.5181    0.0000 </r>
      </set>
      <set comment="kpoint 2">
       <r>  -26.2369    1.0000 </r>
       <r>  -26.2351    1.0000 </r>
       <r>  -26.2284    1.0000 </r>
       <r>  -26.1589    1.0000 </r>
       <r>  -26.1571    1.0000 </r>
       <r>  -26.1505    1.0000 </r>
       <r>  -25.4869    1.0000 </r>
       <r>  -25.4858    1.0000 </r>
       <r>  -25.4801    1.0000 </r>
       <r>  -25.4418    1.0000 </r>
       <r>  -25.4407    1.0000 </r>
       <r>  -25.4347    1.0000 </r>
       <r>  -23.5260    1.0000 </r>
       <r>  -23.5200    1.0000 </r>
       <r>  -23.2400    1.0000 </r>
       <r>  -23.2342    1.0000 </r>
       <r>  -23.2316    1.0000 </r>
       <r>  -23.2265    1.0000 </r>
       <r>  -20.8689    1.0000 </r>
       <r>  -20.6486    1.0000 </r>
       <r>  -20.6165    1.0000 </r>
       <r>  -20.6110    1.0000 </r>
       <r>  -20.2574    1.0000 </r>
       <r>  -19.2432    1.0000 </r>
       <r>  -19.2386    1.0000 </r>
       <r>  -18.7104    1.0000 </r>
       <r>  -18.4560    1.0000 </r>
       <r>  -18.4534    1.0000 </r>
       <r>  -17.8024    1.0000 </r>
       <r>  -17.8001    1.0000 </r>
       <r>  -17.3371    1.0000 </r>
       <r>  -17.3340    1.0000 </r>
       <r>  -17.3277    1.0000 </r>
       <r>  -17.3021    1.0000 </r>
       <r>  -17.0735    1.0000 </r>
       <r>  -17.0704    1.0000 </r>
       <r>  -16.0121    1.0000 </r>
       <r>  -16.0065    1.0000 </r>
       <r>  -15.8516    1.0000 </r>
       <r>  -15.0833    1.0000 </r>
       <r>  -15.0789    1.0000 </r>
       <r>  -14.9558    1.0000 </r>
       <r>  -14.6879    1.0000 </r>
       <r>  -14.6861    1.0000 </r>
       <r>  -14.6116    1.0000 </r>
       <r>  -14.6074    1.0000 </r>
       <r>  -14.4938    1.0000 </r>
       <r>  -14.3665    1.0000 </r>
       <r>  -14.3646    1.0000 </r>
       <r>  -14.0178    1.0000 </r>
       <r>  -13.8868    1.0000 </r>
       <r>  -13.8821    1.0000 </r>
       <r>  -13.6040    1.0000 </r>
       <r>  -13.5054    1.0000 </r>
       <r>  -12.7893    1.0000 </r>
       <r>  -12.7862    1.0000 </r>
       <r>  -12.7599    1.0000 </r>
       <r>  -12.4996    1.0000 </r>
       <r>  -12.4143    1.0000 </r>
       <r>  -12.1224    1.0000 </r>
       <r>  -12.1197    1.0000 </r>
       <r>  -12.0872    1.0000 </r>
       <r>  -11.9979    1.0000 </r>
       <r>  -11.9965    1.0000 </r>
       <r>  -11.9604    1.0000 </r>
       <r>  -11.9494    1.0000 </r>
       <r>  -11.9472    1.0000 </r>
       <r>  -11.8384    1.0000 </r>
       <r>  -11.4086    1.0000 </r>
       <r>  -11.4052    1.0000 </r>
       <r>  -11.3479    1.0000 </r>
       <r>  -11.1967    1.0000 </r>
       <r>  -11.1931    1.0000 </r>
       <r>  -10.9983    1.0000 </r>
       <r>  -10.8489    1.0000 </r>
       <r>  -10.8455    1.0000 </r>
       <r>  -10.6845    1.0000 </r>
       <r>  -10.6795    1.0000 </r>
       <r>  -10.6153    1.0000 </r>
       <r>  -10.6098    1.0000 </r>
       <r>  -10.3892    1.0000 </r>
       <r>  -10.3860    1.0000 </r>
       <r>  -10.2755    1.0000 </r>
       <r>  -10.2704    1.0000 </r>
       <r>  -10.1729    1.0000 </r>
       <r>   -9.9814    1.0000 </r>
       <r>   -9.9745    1.0000 </r>
       <r>   -9.9647    1.0000 </r>
       <r>   -9.7881    1.0000 </r>
       <r>   -9.5579    1.0000 </r>
       <r>   -9.4939    1.0000 </r>
       <r>   -9.4908    1.0000 </r>
       <r>   -9.4131    1.0000 </r>
       <r>   -9.3522    1.0000 </r>
       <r>   -9.3467    1.0000 </r>
       <r>   -9.2091    1.0000 </r>
       <r>   -9.2077    1.0000 </r>
       <r>   -9.2043    1.0000 </r>
       <r>   -9.1475    1.0000 </r>
       <r>   -9.0193    1.0000 </r>
       <r>   -9.0168    1.0000 </r>
       <r>   -8.9276    1.0000 </r>
       <r>   -8.9185    1.0000 </r>
       <r>   -8.9169    1.0000 </r>
       <r>   -8.8326    1.0000 </r>
       <r>   -8.7639    1.0000 </r>
       <r>   -8.7631    1.0000 </r>
       <r>   -8.6622    1.0000 </r>
       <r>   -8.6575    1.0000 </r>
       <r>   -8.4675    1.0000 </r>
       <r>   -8.4483    1.0000 </r>
       <r>   -8.4454    1.0000 </r>
       <r>   -8.4416    1.0000 </r>
       <r>   -8.1069    1.0000 </r>
       <r>   -8.1046    1.0000 </r>
       <r>   -7.9676    1.0000 </r>
       <r>   -7.8446    1.0000 </r>
       <r>   -7.8416    1.0000 </r>
       <r>   -7.7428    1.0000 </r>
       <r>   -7.7382    1.0000 </r>
       <r>   -7.7226    1.0000 </r>
       <r>   -7.6891    1.0000 </r>
       <r>   -7.3707    1.0000 </r>
       <r>   -7.3633    1.0000 </r>
       <r>   -7.1165    1.0000 </r>
       <r>   -7.1085    1.0000 </r>
       <r>   -6.2248    1.0000 </r>
       <r>   -6.1945    1.0000 </r>
       <r>   -6.1898    1.0000 </r>
       <r>   -5.8285    1.0000 </r>
       <r>   -5.8079    1.0000 </r>
       <r>   -5.1231    1.0000 </r>
       <r>   -5.1198    1.0000 </r>
       <r>   -5.0898    1.0000 </r>
       <r>   -5.0858    1.0000 </r>
       <r>   -4.9855    1.0000 </r>
       <r>   -4.9630    1.0000 </r>
       <r>   -4.9576    1.0000 </r>
       <r>   -4.0094    1.0000 </r>
       <r>   -4.0073    1.0000 </r>
       <r>   -4.0030    1.0000 </r>
       <r>   -1.0320    0.0000 </r>
       <r>   -1.0284    0.0000 </r>
       <r>   -0.9726    0.0000 </r>
       <r>   -0.9682    0.0000 </r>
       <r>   -0.7455    0.0000 </r>
       <r>   -0.6116    0.0000 </r>
       <r>   -0.5547    0.0000 </r>
       <r>   -0.5501    0.0000 </r>
       <r>   -0.2991    0.0000 </r>
       <r>   -0.2974    0.0000 </r>
       <r>   -0.1338    0.0000 </r>
       <r>   -0.0479    0.0000 </r>
       <r>   -0.0452    0.0000 </r>
       <r>    0.0264    0.0000 </r>
       <r>    0.2612    0.0000 </r>
       <r>    0.2625    0.0000 </r>
       <r>    0.2682    0.0000 </r>
       <r>    0.2696    0.0000 </r>
       <r>    0.3618    0.0000 </r>
       <r>    0.3693    0.0000 </r>
       <r>    0.3733    0.0000 </r>
       <r>    0.3876    0.0000 </r>
       <r>    0.4493    0.0000 </r>
       <r>    0.6150    0.0000 </r>
       <r>    0.7099    0.0000 </r>
       <r>    0.7414    0.0000 </r>
       <r>    0.7911    0.0000 </r>
       <r>    0.8405    0.0000 </r>
       <r>    0.8431    0.0000 </r>
       <r>    0.8829    0.0000 </r>
       <r>    0.8868    0.0000 </r>
       <r>    0.9450    0.0000 </r>
       <r>    0.9466    0.0000 </r>
       <r>    1.0303    0.0000 </r>
       <r>    1.0334    0.0000 </r>
       <r>    1.0349    0.0000 </r>
       <r>    1.0450    0.0000 </r>
       <r>    1.1382    0.0000 </r>
       <r>    1.2008    0.0000 </r>
       <r>    1.2652    0.0000 </r>
       <r>    1.2829    0.0000 </r>
       <r>    1.3271    0.0000 </r>
       <r>    1.3301    0.0000 </r>
       <r>    1.3566    0.0000 </r>
       <r>    1.3603    0.0000 </r>
       <r>    1.3899    0.0000 </r>
       <r>    1.3916    0.0000 </r>
       <r>    1.4658    0.0000 </r>
       <r>    1.4721    0.0000 </r>
       <r>    1.5108    0.0000 </r>
       <r>    1.5183    0.0000 </r>
      </set>
      <set comment="kpoint 3">
       <r>  -26.2369    1.0000 </r>
       <r>  -26.2351    1.0000 </r>
       <r>  -26.2284    1.0000 </r>
       <r>  -26.1589    1.0000 </r>
       <r>  -26.1571    1.0000 </r>
       <r>  -26.1505    1.0000 </r>
       <r>  -25.4869    1.0000 </r>
       <r>  -25.4858    1.0000 </r>
       <r>  -25.4801    1.0000 </r>
       <r>  -25.4418    1.0000 </r>
       <r>  -25.4407    1.0000 </r>
       <r>  -25.4347    1.0000 </r>
       <r>  -23.5260    1.0000 </r>
       <r>  -23.5201    1.0000 </r>
       <r>  -23.2400    1.0000 </r>
       <r>  -23.2343    1.0000 </r>
       <r>  -23.2316    1.0000 </r>
       <r>  -23.2265    1.0000 </r>
       <r>  -20.8684    1.0000 </r>
       <r>  -20.6563    1.0000 </r>
       <r>  -20.6153    1.0000 </r>
       <r>  -20.6039    1.0000 </r>
       <r>  -20.2586    1.0000 </r>
       <r>  -19.2423    1.0000 </r>
       <r>  -19.2377    1.0000 </r>
       <r>  -18.7168    1.0000 </r>
       <r>  -18.4556    1.0000 </r>
       <r>  -18.4472    1.0000 </r>
       <r>  -17.8052    1.0000 </r>
       <r>  -17.8002    1.0000 </r>
       <r>  -17.3371    1.0000 </r>
       <r>  -17.3342    1.0000 </r>
       <r>  -17.3277    1.0000 </r>
       <r>  -17.3000    1.0000 </r>
       <r>  -17.0741    1.0000 </r>
       <r>  -17.0704    1.0000 </r>
       <r>  -16.0115    1.0000 </r>
       <r>  -16.0064    1.0000 </r>
       <r>  -15.8525    1.0000 </r>
       <r>  -15.0827    1.0000 </r>
       <r>  -15.0786    1.0000 </r>
       <r>  -14.9563    1.0000 </r>
       <r>  -14.6879    1.0000 </r>
       <r>  -14.6864    1.0000 </r>
       <r>  -14.6121    1.0000 </r>
       <r>  -14.6073    1.0000 </r>
       <r>  -14.4928    1.0000 </r>
       <r>  -14.3669    1.0000 </r>
       <r>  -14.3647    1.0000 </r>
       <r>  -14.0172    1.0000 </r>
       <r>  -13.8873    1.0000 </r>
       <r>  -13.8823    1.0000 </r>
       <r>  -13.6036    1.0000 </r>
       <r>  -13.5059    1.0000 </r>
       <r>  -12.7890    1.0000 </r>
       <r>  -12.7860    1.0000 </r>
       <r>  -12.7598    1.0000 </r>
       <r>  -12.4994    1.0000 </r>
       <r>  -12.4149    1.0000 </r>
       <r>  -12.1221    1.0000 </r>
       <r>  -12.1195    1.0000 </r>
       <r>  -12.0873    1.0000 </r>
       <r>  -11.9990    1.0000 </r>
       <r>  -11.9973    1.0000 </r>
       <r>  -11.9637    1.0000 </r>
       <r>  -11.9478    1.0000 </r>
       <r>  -11.9439    1.0000 </r>
       <r>  -11.8386    1.0000 </r>
       <r>  -11.4081    1.0000 </r>
       <r>  -11.4049    1.0000 </r>
       <r>  -11.3478    1.0000 </r>
       <r>  -11.1972    1.0000 </r>
       <r>  -11.1929    1.0000 </r>
       <r>  -11.0009    1.0000 </r>
       <r>  -10.8483    1.0000 </r>
       <r>  -10.8433    1.0000 </r>
       <r>  -10.6844    1.0000 </r>
       <r>  -10.6794    1.0000 </r>
       <r>  -10.6157    1.0000 </r>
       <r>  -10.6100    1.0000 </r>
       <r>  -10.3890    1.0000 </r>
       <r>  -10.3861    1.0000 </r>
       <r>  -10.2764    1.0000 </r>
       <r>  -10.2704    1.0000 </r>
       <r>  -10.1721    1.0000 </r>
       <r>   -9.9864    1.0000 </r>
       <r>   -9.9746    1.0000 </r>
       <r>   -9.9592    1.0000 </r>
       <r>   -9.7885    1.0000 </r>
       <r>   -9.5576    1.0000 </r>
       <r>   -9.4940    1.0000 </r>
       <r>   -9.4911    1.0000 </r>
       <r>   -9.4128    1.0000 </r>
       <r>   -9.3524    1.0000 </r>
       <r>   -9.3469    1.0000 </r>
       <r>   -9.2085    1.0000 </r>
       <r>   -9.2075    1.0000 </r>
       <r>   -9.2041    1.0000 </r>
       <r>   -9.1476    1.0000 </r>
       <r>   -9.0190    1.0000 </r>
       <r>   -9.0168    1.0000 </r>
       <r>   -8.9293    1.0000 </r>
       <r>   -8.9195    1.0000 </r>
       <r>   -8.9171    1.0000 </r>
       <r>   -8.8321    1.0000 </r>
       <r>   -8.7640    1.0000 </r>
       <r>   -8.7633    1.0000 </r>
       <r>   -8.6608    1.0000 </r>
       <r>   -8.6567    1.0000 </r>
       <r>   -8.4680    1.0000 </r>
       <r>   -8.4483    1.0000 </r>
       <r>   -8.4453    1.0000 </r>
       <r>   -8.4416    1.0000 </r>
       <r>   -8.1064    1.0000 </r>
       <r>   -8.1045    1.0000 </r>
       <r>   -7.9680    1.0000 </r>
       <r>   -7.8445    1.0000 </r>
       <r>   -7.8416    1.0000 </r>
       <r>   -7.7434    1.0000 </r>
       <r>   -7.7382    1.0000 </r>
       <r>   -7.7226    1.0000 </r>
       <r>   -7.6901    1.0000 </r>
       <r>   -7.3691    1.0000 </r>
       <r>   -7.3629    1.0000 </r>
       <r>   -7.1172    1.0000 </r>
       <r>   -7.1087    1.0000 </r>
       <r>   -6.2246    1.0000 </r>
       <r>   -6.1946    1.0000 </r>
       <r>   -6.1899    1.0000 </r>
       <r>   -5.8284    1.0000 </r>
       <r>   -5.8080    1.0000 </r>
       <r>   -5.1230    1.0000 </r>
       <r>   -5.1198    1.0000 </r>
       <r>   -5.0900    1.0000 </r>
       <r>   -5.0858    1.0000 </r>
       <r>   -4.9854    1.0000 </r>
       <r>   -4.9630    1.0000 </r>
       <r>   -4.9576    1.0000 </r>
       <r>   -4.0094    1.0000 </r>
       <r>   -4.0073    1.0000 </r>
       <r>   -4.0030    1.0000 </r>
       <r>   -1.0321    0.0000 </r>
       <r>   -1.0285    0.0000 </r>
       <r>   -0.9729    0.0000 </r>
       <r>   -0.9682    0.0000 </r>
       <r>   -0.7445    0.0000 </r>
       <r>   -0.6108    0.0000 </r>
       <r>   -0.5553    0.0000 </r>
       <r>   -0.5501    0.0000 </r>
       <r>   -0.3024    0.0000 </r>
       <r>   -0.2983    0.0000 </r>
       <r>   -0.1303    0.0000 </r>
       <r>   -0.0471    0.0000 </r>
       <r>   -0.0445    0.0000 </r>
       <r>    0.0270    0.0000 </r>
       <r>    0.2574    0.0000 </r>
       <r>    0.2620    0.0000 </r>
       <r>    0.2673    0.0000 </r>
       <r>    0.2694    0.0000 </r>
       <r>    0.3618    0.0000 </r>
       <r>    0.3670    0.0000 </r>
       <r>    0.3731    0.0000 </r>
       <r>    0.3945    0.0000 </r>
       <r>    0.4495    0.0000 </r>
       <r>    0.6147    0.0000 </r>
       <r>    0.7076    0.0000 </r>
       <r>    0.7372    0.0000 </r>
       <r>    0.7914    0.0000 </r>
       <r>    0.8386    0.0000 </r>
       <r>    0.8441    0.0000 </r>
       <r>    0.8840    0.0000 </r>
       <r>    0.8925    0.0000 </r>
       <r>    0.9450    0.0000 </r>
       <r>    0.9459    0.0000 </r>
       <r>    1.0265    0.0000 </r>
       <r>    1.0343    0.0000 </r>
       <r>    1.0376    0.0000 </r>
       <r>    1.0503    0.0000 </r>
       <r>    1.1382    0.0000 </r>
       <r>    1.2033    0.0000 </r>
       <r>    1.2554    0.0000 </r>
       <r>    1.2791    0.0000 </r>
       <r>    1.3220    0.0000 </r>
       <r>    1.3298    0.0000 </r>
       <r>    1.3573    0.0000 </r>
       <r>    1.3581    0.0000 </r>
       <r>    1.3998    0.0000 </r>
       <r>    1.4024    0.0000 </r>
       <r>    1.4595    0.0000 </r>
       <r>    1.4699    0.0000 </r>
       <r>    1.5152    0.0000 </r>
       <r>    1.5193    0.0000 </r>
      </set>
      <set comment="kpoint 4">
       <r>  -26.2369    1.0000 </r>
       <r>  -26.2351    1.0000 </r>
       <r>  -26.2285    1.0000 </r>
       <r>  -26.1589    1.0000 </r>
       <r>  -26.1571    1.0000 </r>
       <r>  -26.1505    1.0000 </r>
       <r>  -25.4869    1.0000 </r>
       <r>  -25.4858    1.0000 </r>
       <r>  -25.4802    1.0000 </r>
       <r>  -25.4418    1.0000 </r>
       <r>  -25.4407    1.0000 </r>
       <r>  -25.4347    1.0000 </r>
       <r>  -23.5259    1.0000 </r>
       <r>  -23.5201    1.0000 </r>
       <r>  -23.2400    1.0000 </r>
       <r>  -23.2343    1.0000 </r>
       <r>  -23.2316    1.0000 </r>
       <r>  -23.2266    1.0000 </r>
       <r>  -20.8676    1.0000 </r>
       <r>  -20.6654    1.0000 </r>
       <r>  -20.6150    1.0000 </r>
       <r>  -20.5943    1.0000 </r>
       <r>  -20.2607    1.0000 </r>
       <r>  -19.2414    1.0000 </r>
       <r>  -19.2357    1.0000 </r>
       <r>  -18.7267    1.0000 </r>
       <r>  -18.4555    1.0000 </r>
       <r>  -18.4368    1.0000 </r>
       <r>  -17.8101    1.0000 </r>
       <r>  -17.8003    1.0000 </r>
       <r>  -17.3372    1.0000 </r>
       <r>  -17.3344    1.0000 </r>
       <r>  -17.3277    1.0000 </r>
       <r>  -17.2966    1.0000 </r>
       <r>  -17.0752    1.0000 </r>
       <r>  -17.0704    1.0000 </r>
       <r>  -16.0106    1.0000 </r>
       <r>  -16.0064    1.0000 </r>
       <r>  -15.8539    1.0000 </r>
       <r>  -15.0820    1.0000 </r>
       <r>  -15.0782    1.0000 </r>
       <r>  -14.9570    1.0000 </r>
       <r>  -14.6880    1.0000 </r>
       <r>  -14.6868    1.0000 </r>
       <r>  -14.6129    1.0000 </r>
       <r>  -14.6070    1.0000 </r>
       <r>  -14.4911    1.0000 </r>
       <r>  -14.3677    1.0000 </r>
       <r>  -14.3649    1.0000 </r>
       <r>  -14.0161    1.0000 </r>
       <r>  -13.8882    1.0000 </r>
       <r>  -13.8824    1.0000 </r>
       <r>  -13.6029    1.0000 </r>
       <r>  -13.5067    1.0000 </r>
       <r>  -12.7886    1.0000 </r>
       <r>  -12.7857    1.0000 </r>
       <r>  -12.7597    1.0000 </r>
       <r>  -12.4992    1.0000 </r>
       <r>  -12.4160    1.0000 </r>
       <r>  -12.1215    1.0000 </r>
       <r>  -12.1192    1.0000 </r>
       <r>  -12.0873    1.0000 </r>
       <r>  -12.0007    1.0000 </r>
       <r>  -11.9988    1.0000 </r>
       <r>  -11.9669    1.0000 </r>
       <r>  -11.9465    1.0000 </r>
       <r>  -11.9393    1.0000 </r>
       <r>  -11.8389    1.0000 </r>
       <r>  -11.4073    1.0000 </r>
       <r>  -11.4043    1.0000 </r>
       <r>  -11.3476    1.0000 </r>
[...]
       <r>   -25.2812     0.0000    24.0000 </r>
       <r>   -25.1791     0.0000    24.0000 </r>
       <r>   -25.0771     0.0000    24.0000 </r>
       <r>   -24.9750     0.0000    24.0000 </r>
       <r>   -24.8729     0.0000    24.0000 </r>
       <r>   -24.7709     0.0000    24.0000 </r>
       <r>   -24.6688     0.0000    24.0000 </r>
       <r>   -24.5667     0.0000    24.0000 </r>
       <r>   -24.4647     0.0000    24.0000 </r>
       <r>   -24.3626     0.0000    24.0000 </r>
       <r>   -24.2605     0.0000    24.0000 </r>
       <r>   -24.1585     0.0000    24.0000 </r>
       <r>   -24.0564     0.0000    24.0000 </r>
       <r>   -23.9543     0.0000    24.0000 </r>
       <r>   -23.8523     0.0000    24.0000 </r>
       <r>   -23.7502     0.0000    24.0000 </r>
       <r>   -23.6481     0.0000    24.0000 </r>
       <r>   -23.5461     0.0321    24.0033 </r>
       <r>   -23.4440    22.8528    28.0000 </r>
       <r>   -23.3419     0.0000    28.0000 </r>
       <r>   -23.2398    16.4803    29.6821 </r>
       <r>   -23.1378     0.0000    36.0000 </r>
       <r>   -23.0357     0.0000    36.0000 </r>
       <r>   -22.9336     0.0000    36.0000 </r>
       <r>   -22.8316     0.0000    36.0000 </r>
       <r>   -22.7295     0.0000    36.0000 </r>
       <r>   -22.6274     0.0000    36.0000 </r>
       <r>   -22.5254     0.0000    36.0000 </r>
       <r>   -22.4233     0.0000    36.0000 </r>
       <r>   -22.3212     0.0000    36.0000 </r>
       <r>   -22.2192     0.0000    36.0000 </r>
       <r>   -22.1171     0.0000    36.0000 </r>
       <r>   -22.0150     0.0000    36.0000 </r>
       <r>   -21.9130     0.0000    36.0000 </r>
       <r>   -21.8109     0.0000    36.0000 </r>
       <r>   -21.7088     0.0000    36.0000 </r>
       <r>   -21.6068     0.0000    36.0000 </r>
       <r>   -21.5047     0.0000    36.0000 </r>
       <r>   -21.4026     0.0000    36.0000 </r>
       <r>   -21.3005     0.0000    36.0000 </r>
       <r>   -21.1985     0.0000    36.0000 </r>
       <r>   -21.0964     0.0000    36.0000 </r>
       <r>   -20.9943     0.0000    36.0000 </r>
       <r>   -20.8923     0.0011    36.0001 </r>
       <r>   -20.7902    23.2293    38.3711 </r>
       <r>   -20.6881     6.1454    39.6273 </r>
       <r>   -20.5861    24.4630    42.2636 </r>
       <r>   -20.4840     4.6268    42.8389 </r>
       <r>   -20.3819    11.8765    44.1789 </r>
       <r>   -20.2799    10.1372    45.5014 </r>
       <r>   -20.1778     1.3054    46.0000 </r>
       <r>   -20.0757     0.0000    46.0000 </r>
       <r>   -19.9737     0.0000    46.0000 </r>
       <r>   -19.8716     0.0000    46.0000 </r>
       <r>   -19.7695     0.0000    46.0000 </r>
       <r>   -19.6675     0.0000    46.0000 </r>
       <r>   -19.5654     0.0000    46.0000 </r>
       <r>   -19.4633     0.0000    46.0000 </r>
       <r>   -19.3612     0.0000    46.0000 </r>
       <r>   -19.2592     0.1269    46.0130 </r>
       <r>   -19.1571     6.4642    48.8265 </r>
       <r>   -19.0550     8.6194    49.8464 </r>
       <r>   -18.9530     7.8384    50.8667 </r>
       <r>   -18.8509     2.7614    51.3152 </r>
       <r>   -18.7488     3.0514    51.6781 </r>
       <r>   -18.6468     2.2858    52.0000 </r>
       <r>   -18.5447     0.0000    52.0000 </r>
       <r>   -18.4426    20.7087    54.1137 </r>
       <r>   -18.3406     2.6201    54.5674 </r>
       <r>   -18.2385     2.4523    54.8836 </r>
       <r>   -18.1364     6.8167    55.6624 </r>
       <r>   -18.0344     5.3721    56.3483 </r>
       <r>   -17.9323     6.5051    57.1640 </r>
       <r>   -17.8302     3.5262    57.6266 </r>
       <r>   -17.7282    21.5537    60.0000 </r>
       <r>   -17.6261     0.0000    60.0000 </r>
       <r>   -17.5240     0.0000    60.0000 </r>
       <r>   -17.4219     0.0000    60.0000 </r>
       <r>   -17.3199    55.9666    65.7124 </r>
       <r>   -17.2178     6.8164    66.8958 </r>
       <r>   -17.1157    18.5070    69.0224 </r>
       <r>   -17.0137    25.7996    72.0000 </r>
       <r>   -16.9116     0.0000    72.0000 </r>
       <r>   -16.8095     0.0000    72.0000 </r>
       <r>   -16.7075     0.0000    72.0000 </r>
       <r>   -16.6054     0.0000    72.0000 </r>
       <r>   -16.5033     0.0000    72.0000 </r>
       <r>   -16.4013     0.0000    72.0000 </r>
       <r>   -16.2992     0.0000    72.0000 </r>
       <r>   -16.1971     0.0000    72.0000 </r>
       <r>   -16.0951     0.0000    72.0000 </r>
       <r>   -15.9930    25.1971    74.5718 </r>
       <r>   -15.8909    21.5686    77.1682 </r>
       <r>   -15.7889     5.2249    78.0000 </r>
       <r>   -15.6868     0.0000    78.0000 </r>
       <r>   -15.5847     0.0000    78.0000 </r>
       <r>   -15.4826     0.0000    78.0000 </r>
       <r>   -15.3806     0.0000    78.0000 </r>
       <r>   -15.2785     0.0000    78.0000 </r>
       <r>   -15.1764     0.0000    78.0000 </r>
       <r>   -15.0744    18.8199    79.9209 </r>
       <r>   -14.9723    24.7691    83.2948 </r>
       <r>   -14.8702     0.0000    84.0000 </r>
       <r>   -14.7682     0.0000    84.0000 </r>
       <r>   -14.6661    38.2293    87.9020 </r>
       <r>   -14.5640    32.9803    91.9997 </r>
       <r>   -14.4620     7.1416    92.7289 </r>
       <r>   -14.3599    44.4576    97.6044 </r>
       <r>   -14.2578     0.0000    98.0000 </r>
       <r>   -14.1558     0.0000    98.0000 </r>
       <r>   -14.0537     0.0000    98.0000 </r>
       <r>   -13.9516    19.1901    99.9587 </r>
       <r>   -13.8496    30.3714   104.0000 </r>
       <r>   -13.7475     0.0000   104.0000 </r>
       <r>   -13.6454     0.0000   104.0000 </r>
       <r>   -13.5433    25.3483   106.5873 </r>
       <r>   -13.4413     6.5312   108.0000 </r>
       <r>   -13.3392     0.0000   108.0000 </r>
       <r>   -13.2371     0.0000   108.0000 </r>
       <r>   -13.1351     0.0000   108.0000 </r>
       <r>   -13.0330     0.0000   108.0000 </r>
       <r>   -12.9309     0.0000   108.0000 </r>
       <r>   -12.8289     0.0000   108.0000 </r>
       <r>   -12.7268    58.7840   114.0000 </r>
       <r>   -12.6247     0.0000   114.0000 </r>
       <r>   -12.5227     0.0020   114.0002 </r>
       <r>   -12.4206    35.7739   117.6516 </r>
       <r>   -12.3185     0.0000   118.0000 </r>
       <r>   -12.2165     0.0000   118.0000 </r>
       <r>   -12.1144    11.8630   119.2108 </r>
       <r>   -12.0123    43.0762   126.8971 </r>
       <r>   -11.9103    37.3772   132.4484 </r>
       <r>   -11.8082    30.0450   136.0000 </r>
       <r>   -11.7061     0.0000   136.0000 </r>
       <r>   -11.6040     0.0000   136.0000 </r>
       <r>   -11.5020     0.0000   136.0000 </r>
       <r>   -11.3999    10.8455   137.1070 </r>
       <r>   -11.2978    30.0449   142.0000 </r>
       <r>   -11.1958    19.9819   144.0395 </r>
       <r>   -11.0937    15.5440   146.9199 </r>
       <r>   -10.9916     7.5219   147.9678 </r>
       <r>   -10.8896     0.0000   148.0000 </r>
       <r>   -10.7875    25.9210   150.6457 </r>
       <r>   -10.6854    25.5256   153.4054 </r>
       <r>   -10.5834    35.5958   160.0000 </r>
       <r>   -10.4813     0.0000   160.0000 </r>
       <r>   -10.3792    26.9505   162.7508 </r>
       <r>   -10.2772    21.7465   166.0530 </r>
       <r>   -10.1751     1.1080   168.1131 </r>
       <r>   -10.0730    18.9798   170.5706 </r>
       <r>    -9.9710    22.9024   173.4710 </r>
       <r>    -9.8689     9.3759   175.2237 </r>
       <r>    -9.7668    20.8972   177.9996 </r>
       <r>    -9.6647     0.0000   178.0000 </r>
       <r>    -9.5627     1.0855   178.1108 </r>
       <r>    -9.4606    48.9856   184.0000 </r>
       <r>    -9.3585    37.0890   187.7856 </r>
       <r>    -9.2565     0.0000   190.0000 </r>
       <r>    -9.1544    59.9720   196.1212 </r>
       <r>    -9.0523    17.9118   198.7616 </r>
       <r>    -8.9503    54.2780   204.6401 </r>
       <r>    -8.8482    24.5287   208.0037 </r>
       <r>    -8.7461    54.4560   213.9916 </r>
       <r>    -8.6441    22.3923   216.2856 </r>
       <r>    -8.5420    11.3775   217.6946 </r>
       <r>    -8.4399    59.4037   224.2633 </r>
       <r>    -8.3379     0.0000   226.0000 </r>
       <r>    -8.2358     0.0000   226.0000 </r>
       <r>    -8.1337     0.0006   226.0001 </r>
       <r>    -8.0317    39.4273   230.0243 </r>
       <r>    -7.9296    13.0619   232.0000 </r>
       <r>    -7.8275    32.6973   235.3374 </r>
       <r>    -7.7254    41.9376   240.5805 </r>
       <r>    -7.6234     4.8984   244.0000 </r>
       <r>    -7.5213     0.0000   244.0000 </r>
       <r>    -7.4192     0.0000   244.0000 </r>
       <r>    -7.3172    25.8806   246.6416 </r>
       <r>    -7.2151    11.8536   248.0099 </r>
       <r>    -7.1130    22.5766   250.6711 </r>
       <r>    -7.0110     0.0000   252.0000 </r>
       <r>    -6.9089     0.0000   252.0000 </r>
       <r>    -6.8068     0.0000   252.0000 </r>
       <r>    -6.7048     0.0000   252.0000 </r>
       <r>    -6.6027     0.0000   252.0000 </r>
       <r>    -6.5006     0.0000   252.0000 </r>
       <r>    -6.3986     0.0000   252.0000 </r>
       <r>    -6.2965     0.0000   252.0000 </r>
       <r>    -6.1944    40.7794   256.1623 </r>
       <r>    -6.0924     0.0000   258.0000 </r>
       <r>    -5.9903     0.0000   258.0000 </r>
       <r>    -5.8882     0.0000   258.0000 </r>
       <r>    -5.7861    39.1843   261.9995 </r>
       <r>    -5.6841     0.0000   262.0000 </r>
       <r>    -5.5820     0.0000   262.0000 </r>
       <r>    -5.4799     0.0000   262.0000 </r>
       <r>    -5.3779     0.0000   262.0000 </r>
       <r>    -5.2758     0.0000   262.0000 </r>
       <r>    -5.1737     0.0000   262.0000 </r>
       <r>    -5.0717    78.0826   269.9698 </r>
       <r>    -4.9696    25.2779   272.5801 </r>
       <r>    -4.8675     0.0000   276.0000 </r>
       <r>    -4.7655     0.0000   276.0000 </r>
       <r>    -4.6634     0.0000   276.0000 </r>
       <r>    -4.5613     0.0000   276.0000 </r>
       <r>    -4.4593     0.0000   276.0000 </r>
       <r>    -4.3572     0.0000   276.0000 </r>
       <r>    -4.2551     0.0000   276.0000 </r>
       <r>    -4.1531     0.0000   276.0000 </r>
       <r>    -4.0510     0.0000   276.0000 </r>
       <r>    -3.9489    58.7841   282.0000 </r>
       <r>    -3.8468     0.0000   282.0000 </r>
       <r>    -3.7448     0.0000   282.0000 </r>
       <r>    -3.6427     0.0000   282.0000 </r>
       <r>    -3.5406     0.0000   282.0000 </r>
       <r>    -3.4386     0.0000   282.0000 </r>
       <r>    -3.3365     0.0000   282.0000 </r>
       <r>    -3.2344     0.0000   282.0000 </r>
       <r>    -3.1324     0.0000   282.0000 </r>
       <r>    -3.0303     0.0000   282.0000 </r>
       <r>    -2.9282     0.0000   282.0000 </r>
       <r>    -2.8262     0.0000   282.0000 </r>
       <r>    -2.7241     0.0000   282.0000 </r>
       <r>    -2.6220     0.0000   282.0000 </r>
       <r>    -2.5200     0.0000   282.0000 </r>
       <r>    -2.4179     0.0000   282.0000 </r>
       <r>    -2.3158     0.0000   282.0000 </r>
       <r>    -2.2138     0.0000   282.0000 </r>
       <r>    -2.1117     0.0000   282.0000 </r>
       <r>    -2.0096     0.0000   282.0000 </r>
       <r>    -1.9075     0.0000   282.0000 </r>
       <r>    -1.8055     0.0000   282.0000 </r>
       <r>    -1.7034     0.0000   282.0000 </r>
       <r>    -1.6013     0.0000   282.0000 </r>
       <r>    -1.4993     0.0000   282.0000 </r>
       <r>    -1.3972     0.0000   282.0000 </r>
       <r>    -1.2951     0.0000   282.0000 </r>
       <r>    -1.1931     0.0000   282.0000 </r>
       <r>    -1.0910     0.0000   282.0000 </r>
       <r>    -0.9889    49.9364   287.0969 </r>
       <r>    -0.8869    15.6733   290.0000 </r>
       <r>    -0.7848     0.0000   290.0000 </r>
       <r>    -0.6827    10.3789   291.0594 </r>
       <r>    -0.5807    22.8682   294.0008 </r>
       <r>    -0.4786    36.8293   298.2592 </r>
       <r>    -0.3765     7.1896   299.3672 </r>
       <r>    -0.2745    24.4914   301.9998 </r>
       <r>    -0.1724     0.0000   302.0000 </r>
       <r>    -0.0703     9.7545   302.9956 </r>
       <r>     0.0318    41.7840   307.7651 </r>
       <r>     0.1338    19.6525   310.8059 </r>
       <r>     0.2359    19.1947   313.0925 </r>
       <r>     0.3380    42.9293   318.2489 </r>
       <r>     0.4400    58.5102   325.5390 </r>
       <r>     0.5421     4.7191   326.9817 </r>
       <r>     0.6442    33.4529   331.0812 </r>
       <r>     0.7462    33.8208   334.9520 </r>
       <r>     0.8483    32.1825   338.5182 </r>
       <r>     0.9504    44.8792   344.6475 </r>
       <r>     1.0524    51.4698   351.3202 </r>
       <r>     1.1545    41.4665   357.1326 </r>
       <r>     1.2566    53.1704   363.5604 </r>
       <r>     1.3586    60.4833   370.9069 </r>
       <r>     1.4607    48.4272   376.7430 </r>
       <r>     1.5628    48.3631   383.1364 </r>
       <r>     1.6648     1.9594   384.0000 </r>
       <r>     1.7669     0.0000   384.0000 </r>
       <r>     1.8690     0.0000   384.0000 </r>
       <r>     1.9711     0.0000   384.0000 </r>
       <r>     2.0731     0.0000   384.0000 </r>
       <r>     2.1752     0.0000   384.0000 </r>
       <r>     2.2773     0.0000   384.0000 </r>
       <r>     2.3793     0.0000   384.0000 </r>
       <r>     2.4814     0.0000   384.0000 </r>
       <r>     2.5835     0.0000   384.0000 </r>
       <r>     2.6855     0.0000   384.0000 </r>
       <r>     2.7876     0.0000   384.0000 </r>
       <r>     2.8897     0.0000   384.0000 </r>
       <r>     2.9917     0.0000   384.0000 </r>
      </set>
     </set>
    </array>
   </total>
  </dos>
 </calculation>
 <structure name="finalpos" >
  <crystal>
   <varray name="basis" >
    <v>      22.15173643      -0.01625805       0.00000000 </v>
    <v>     -11.08986203      19.24186895       0.00000000 </v>
    <v>       0.00000000       0.00000000      20.00000000 </v>
   </varray>
   <i name="volume">   8521.21019590 </i>
   <varray name="rec_basis" >
    <v>       0.04516229       0.02602884       0.00000000 </v>
    <v>       0.00003816       0.05199200       0.00000000 </v>
    <v>       0.00000000       0.00000000       0.05000000 </v>
   </varray>
  </crystal>
  <varray name="positions" >
   <v>       0.37798974       0.73895405       0.46509759 </v>
   <v>       0.40690175       0.69558951       0.46466640 </v>
   <v>       0.36318851       0.62324319       0.46509672 </v>
   <v>       0.29082367       0.59442066       0.46542464 </v>
   <v>       0.26194107       0.63795594       0.46590202 </v>
   <v>       0.30543717       0.71018024       0.46544657 </v>
   <v>       0.62292330       0.26038436       0.53586000 </v>
   <v>       0.59419747       0.30391481       0.53593360 </v>
   <v>       0.63804546       0.37625549       0.53578074 </v>
   <v>       0.71041544       0.40490085       0.53619052 </v>
   <v>       0.73910153       0.36118089       0.53616451 </v>
   <v>       0.69544392       0.28899717       0.53629280 </v>
   <v>       0.54343715       0.07213926       0.48973605 </v>
   <v>       0.46280378       0.95681876       0.44772897 </v>
   <v>       0.50467655       0.02840919       0.43695612 </v>
   <v>       0.58996409       0.14895843       0.48006024 </v>
   <v>       0.92808274       0.46956247       0.49050623 </v>
   <v>       0.04358652       0.50455251       0.44809101 </v>
   <v>       0.97183764       0.47516304       0.43742335 </v>
   <v>       0.85114776       0.43993413       0.48093043 </v>
   <v>       0.52984746       0.45669436       0.48972748 </v>
   <v>       0.49584962       0.53766895       0.44721857 </v>
   <v>       0.52482510       0.49506454       0.43662778 </v>
   <v>       0.55909702       0.40918277       0.48028827 </v>
   <v>       0.53950531       0.04279741       0.55293399 </v>
   <v>       0.49789096       0.97115599       0.56367058 </v>
   <v>       0.45881939       0.92746761       0.51095294 </v>
   <v>       0.41181063       0.85071015       0.52073499 </v>
   <v>       0.95754989       0.49384009       0.55391446 </v>
   <v>       0.02929999       0.52324910       0.56456596 </v>
   <v>       0.07304567       0.52873007       0.51152040 </v>
   <v>       0.14999320       0.55844999       0.52117234 </v>
   <v>       0.50558300       0.46205261       0.55310400 </v>
   <v>       0.47670739       0.50474350       0.56370529 </v>
   <v>       0.47167106       0.54308531       0.51060429 </v>
   <v>       0.44249293       0.59063348       0.52002157 </v>
   <v>       0.42222242       0.81207400       0.46524706 </v>
   <v>       0.18869486       0.60883961       0.46668262 </v>
   <v>       0.39216919       0.57910591       0.46538437 </v>
   <v>       0.57864647       0.18731940       0.53518054 </v>
   <v>       0.81236660       0.39005392       0.53582094 </v>
   <v>       0.60919899       0.42052698       0.53508248 </v>
   <v>       0.42600345       0.91718925       0.39334460 </v>
   <v>       0.50824222       0.05542768       0.37419771 </v>
   <v>       0.08327267       0.50835372       0.39332404 </v>
   <v>       0.94473720       0.45280336       0.37445524 </v>
   <v>       0.49241727       0.57361871       0.39242966 </v>
   <v>       0.54734032       0.49032556       0.37374052 </v>
   <v>       0.49483451       0.94409416       0.62632086 </v>
   <v>       0.57614109       0.08257772       0.60730646 </v>
   <v>       0.05646436       0.54586743       0.62744897 </v>
   <v>       0.91789620       0.49021861       0.60861457 </v>
   <v>       0.45421253       0.50957827       0.62656266 </v>
   <v>       0.50877355       0.42590707       0.60784334 </v>
   <v>       0.25716361       0.53805530       0.46581241 </v>
   <v>       0.28262081       0.74379945       0.46584299 </v>
   <v>       0.46341477       0.71833225       0.46457204 </v>
   <v>       0.47326311       0.82443622       0.46486907 </v>
   <v>       0.17608031       0.64721551       0.46740771 </v>
   <v>       0.35353963       0.52821378       0.46607115 </v>
   <v>       0.74422208       0.46125861       0.53593577 </v>
   <v>       0.71810406       0.25524265       0.53621281 </v>
   <v>       0.53768497       0.28125077       0.53553101 </v>
   <v>       0.52760428       0.17491530       0.53500517 </v>
   <v>       0.82468219       0.35145080       0.53538778 </v>
   <v>       0.64790452       0.47140176       0.53455362 </v>
   <v>       0.41647016       0.86897895       0.40333871 </v>
   <v>       0.47841371       0.01581368       0.34551716 </v>
   <v>       0.64491385       0.16225248       0.48199649 </v>
   <v>       0.58122132       0.16543695       0.43081896 </v>
   <v>       0.13158808       0.54684179       0.40352990 </v>
   <v>       0.98441717       0.46288669       0.34563386 </v>
   <v>       0.83839988       0.48183571       0.48331876 </v>
   <v>       0.83443088       0.41512099       0.43154284 </v>
   <v>       0.45402498       0.58365637       0.40257791 </v>
   <v>       0.53727136       0.51979867       0.34484326 </v>
   <v>       0.51689877       0.35465215       0.48298097 </v>
   <v>       0.58378983       0.41693041       0.43083850 </v>
   <v>       0.52464261       0.98373499       0.65498820 </v>
   <v>       0.58507405       0.13056884       0.59745178 </v>
   <v>       0.42082251       0.83407433       0.56978872 </v>
   <v>       0.35697751       0.83787956       0.51929819 </v>
   <v>       0.01684029       0.53579144       0.65635056 </v>
   <v>       0.86949900       0.45180754       0.59841222 </v>
   <v>       0.16650375       0.58284322       0.57075174 </v>
   <v>       0.16287931       0.51665878       0.51839170 </v>
   <v>       0.46377233       0.47975613       0.65547054 </v>
   <v>       0.54716509       0.41583706       0.59779928 </v>
   <v>       0.41800844       0.58309470       0.56953509 </v>
   <v>       0.48470900       0.64512395       0.51708573 </v>
  </varray>
 </structure>
</modeling>
