<?xml version="1.0" encoding="ISO-8859-1"?>
<modeling>
 <generator>
  <i name="program" type="string">vasp </i>
  <i name="version" type="string">5.4.4.18Apr17-6-g9f103f2a35  </i>
  <i name="subversion" type="string">(build Jun 07 2020 16:50:00) complex            parallel </i>
  <i name="platform" type="string">LinuxIFC </i>
  <i name="date" type="string">2023 02 18 </i>
  <i name="time" type="string">07:29:20 </i>
 </generator>
 <incar>
  <i type="string" name="SYSTEM">Simulation for cell shape cell volume r</i>
  <i type="int" name="ISTART">     1</i>
  <i type="string" name="PREC">high</i>
  <i type="string" name="ALGO">48</i>
  <i type="int" name="ICHARG">    11</i>
  <i type="int" name="NELM">   200</i>
  <i type="int" name="IBRION">    -1</i>
  <i name="EDIFF">      0.00001000</i>
  <i name="EDIFFG">     -0.01000000</i>
  <i type="int" name="NSW">     0</i>
  <i type="int" name="ISIF">     2</i>
  <i name="ENCUT">    500.00000000</i>
  <i name="POTIM">      0.30000000</i>
  <i type="string" name="LREAL">A</i>
  <i type="int" name="ISMEAR">     0</i>
  <i name="SIGMA">      0.01000000</i>
  <i type="int" name="NWRITE">     0</i>
  <i type="logical" name="LWAVE"> F  </i>
  <i type="logical" name="LCHARG"> F  </i>
  <v type="int" name="KPOINT_BSE">    -1     0     0     0</v>
  <i type="int" name="NELM">   200</i>
  <i type="string" name="GGA">PE</i>
 </incar>
 <structure name="primitive_cell" >
  <crystal>
   <varray name="basis" >
    <v>      14.69546797       0.00838544       0.00000000 </v>
    <v>      -7.34047707      12.73902208       0.00000000 </v>
    <v>       0.00000000       0.00000000      20.00000000 </v>
   </varray>
   <i name="volume">   3745.34888075 </i>
   <varray name="rec_basis" >
    <v>       0.06802582       0.03919783       0.00000000 </v>
    <v>      -0.00004478       0.07847316       0.00000000 </v>
    <v>       0.00000000       0.00000000       0.05000000 </v>
   </varray>
  </crystal>
  <varray name="positions" >
   <v>      -0.08418156       0.45787839       0.42475166 </v>
   <v>       0.02118245      -0.48919436       0.42484860 </v>
   <v>      -0.13277679       0.43815217       0.48425946 </v>
   <v>       0.07016808      -0.47102946       0.36394075 </v>
   <v>      -0.07574915       0.47199794      -0.45605185 </v>
   <v>       0.07920693      -0.45555301       0.48570724 </v>
   <v>      -0.24977013       0.37922200       0.48437490 </v>
   <v>       0.02472560      -0.48380342       0.32299550 </v>
   <v>       0.02972610      -0.47522284      -0.45574146 </v>
   <v>       0.14726966      -0.41685782       0.36078998 </v>
   <v>      -0.30459351       0.26940513       0.48352382 </v>
   <v>      -0.26137245       0.22688211       0.48247652 </v>
   <v>      -0.30554710       0.43341598       0.48554335 </v>
   <v>      -0.11542772       0.45622350      -0.40775942 </v>
   <v>      -0.26305028      -0.48094392       0.48589351 </v>
   <v>       0.19630439      -0.39722605       0.48533874 </v>
   <v>       0.20874744       0.46245785       0.48376884 </v>
   <v>      -0.41446280       0.21383703       0.48406888 </v>
   <v>       0.20924744      -0.24422548       0.48790443 </v>
   <v>      -0.41542560       0.37859301       0.48521974 </v>
   <v>       0.25170471      -0.45190120       0.48425099 </v>
   <v>       0.25202115      -0.28721040       0.48624051 </v>
   <v>      -0.46950154       0.26878930       0.48486810 </v>
   <v>      -0.47272610       0.09688675       0.48439434 </v>
   <v>      -0.47427263       0.43688764       0.48515274 </v>
   <v>       0.36170296      -0.39776500       0.48570268 </v>
   <v>       0.36204855      -0.23197189       0.48672176 </v>
   <v>      -0.49458677       0.04749850       0.42508985 </v>
   <v>       0.44482478       0.22573569       0.48480074 </v>
   <v>       0.49896134       0.45864689       0.42551684 </v>
   <v>       0.37467885      -0.18342921       0.36261382 </v>
   <v>       0.39791987      -0.41153974       0.36159493 </v>
   <v>       0.41634300      -0.28781753       0.48621308 </v>
   <v>       0.49567109       0.04062626      -0.45553637 </v>
   <v>      -0.49987713       0.46849748      -0.45512849 </v>
   <v>      -0.47773667       0.45101674      -0.40674283 </v>
   <v>      -0.48686679       0.08096956      -0.40742081 </v>
   <v>       0.42004340      -0.45664188       0.48641399 </v>
   <v>       0.41719451      -0.46856508       0.36450595 </v>
   <v>       0.42086798      -0.11494642       0.48702016 </v>
   <v>       0.43294860      -0.10767256       0.36496105 </v>
   <v>       0.45261395      -0.05774233       0.42582488 </v>
   <v>       0.44644080      -0.48842491       0.42554594 </v>
   <v>      -0.49797448      -0.24522160       0.48745703 </v>
   <v>       0.45228012      -0.47942803       0.32405521 </v>
   <v>       0.44291370      -0.06210159       0.32444979 </v>
   <v>       0.44266491      -0.06478361      -0.45458516 </v>
   <v>       0.44757133      -0.47845612      -0.45488693 </v>
  </varray>
 </structure>
 <varray name="primitive_index" >
  <v type="int" >        1 </v>
  <v type="int" >       33 </v>
  <v type="int" >       13 </v>
  <v type="int" >        6 </v>
  <v type="int" >       14 </v>
  <v type="int" >       32 </v>
  <v type="int" >       10 </v>
  <v type="int" >       48 </v>
  <v type="int" >        9 </v>
  <v type="int" >       47 </v>
  <v type="int" >       12 </v>
  <v type="int" >       34 </v>
  <v type="int" >       11 </v>
  <v type="int" >       36 </v>
  <v type="int" >       35 </v>
  <v type="int" >       22 </v>
  <v type="int" >       42 </v>
  <v type="int" >       17 </v>
  <v type="int" >       41 </v>
  <v type="int" >       15 </v>
  <v type="int" >       23 </v>
  <v type="int" >       27 </v>
  <v type="int" >       16 </v>
  <v type="int" >       18 </v>
  <v type="int" >       19 </v>
  <v type="int" >       24 </v>
  <v type="int" >       26 </v>
  <v type="int" >        2 </v>
  <v type="int" >       40 </v>
  <v type="int" >        3 </v>
  <v type="int" >       43 </v>
  <v type="int" >       45 </v>
  <v type="int" >       25 </v>
  <v type="int" >       20 </v>
  <v type="int" >       21 </v>
  <v type="int" >       38 </v>
  <v type="int" >       37 </v>
  <v type="int" >       30 </v>
  <v type="int" >        5 </v>
  <v type="int" >       28 </v>
  <v type="int" >        4 </v>
  <v type="int" >       29 </v>
  <v type="int" >       31 </v>
  <v type="int" >       39 </v>
  <v type="int" >       46 </v>
  <v type="int" >       44 </v>
  <v type="int" >        7 </v>
  <v type="int" >        8 </v>
 </varray>
 <kpoints>
  <generation param="listgenerated">
   <i name="divisions" type="int">      20 </i>
   <v>       0.00000000       0.00000000       0.00000000 </v>
   <v>       0.50000000       0.00000000       0.00000000 </v>
   <v>       0.33333333       0.33333333       0.00000000 </v>
   <v>       0.00000000       0.00000000       0.00000000 </v>
  </generation>
  <varray name="kpointlist" >
   <v>       0.00000000       0.00000000       0.00000000 </v>
   <v>       0.02631579       0.00000000       0.00000000 </v>
   <v>       0.05263158       0.00000000       0.00000000 </v>
   <v>       0.07894737       0.00000000       0.00000000 </v>
   <v>       0.10526316       0.00000000       0.00000000 </v>
   <v>       0.13157895       0.00000000       0.00000000 </v>
   <v>       0.15789474       0.00000000       0.00000000 </v>
   <v>       0.18421053       0.00000000       0.00000000 </v>
   <v>       0.21052632       0.00000000       0.00000000 </v>
   <v>       0.23684211       0.00000000       0.00000000 </v>
   <v>       0.26315789       0.00000000       0.00000000 </v>
   <v>       0.28947368       0.00000000       0.00000000 </v>
   <v>       0.31578947       0.00000000       0.00000000 </v>
   <v>       0.34210526       0.00000000       0.00000000 </v>
   <v>       0.36842105       0.00000000       0.00000000 </v>
   <v>       0.39473684       0.00000000       0.00000000 </v>
   <v>       0.42105263       0.00000000       0.00000000 </v>
   <v>       0.44736842       0.00000000       0.00000000 </v>
   <v>       0.47368421       0.00000000       0.00000000 </v>
   <v>       0.50000000       0.00000000       0.00000000 </v>
   <v>       0.50000000       0.00000000       0.00000000 </v>
   <v>       0.49122807       0.01754386       0.00000000 </v>
   <v>       0.48245614       0.03508772       0.00000000 </v>
   <v>       0.47368421       0.05263158       0.00000000 </v>
   <v>       0.46491228       0.07017544       0.00000000 </v>
   <v>       0.45614035       0.08771930       0.00000000 </v>
   <v>       0.44736842       0.10526316       0.00000000 </v>
   <v>       0.43859649       0.12280702       0.00000000 </v>
   <v>       0.42982456       0.14035088       0.00000000 </v>
   <v>       0.42105263       0.15789474       0.00000000 </v>
   <v>       0.41228070       0.17543860       0.00000000 </v>
   <v>       0.40350877       0.19298246       0.00000000 </v>
   <v>       0.39473684       0.21052632       0.00000000 </v>
   <v>       0.38596491       0.22807018       0.00000000 </v>
   <v>       0.37719298       0.24561404       0.00000000 </v>
   <v>       0.36842105       0.26315789       0.00000000 </v>
   <v>       0.35964912       0.28070175       0.00000000 </v>
   <v>       0.35087719       0.29824561       0.00000000 </v>
   <v>       0.34210526       0.31578947       0.00000000 </v>
   <v>       0.33333333       0.33333333       0.00000000 </v>
   <v>       0.33333333       0.33333333       0.00000000 </v>
   <v>       0.31578947       0.31578947       0.00000000 </v>
   <v>       0.29824561       0.29824561       0.00000000 </v>
   <v>       0.28070175       0.28070175       0.00000000 </v>
   <v>       0.26315789       0.26315789       0.00000000 </v>
   <v>       0.24561404       0.24561404       0.00000000 </v>
   <v>       0.22807018       0.22807018       0.00000000 </v>
   <v>       0.21052632       0.21052632       0.00000000 </v>
   <v>       0.19298246       0.19298246       0.00000000 </v>
   <v>       0.17543860       0.17543860       0.00000000 </v>
   <v>       0.15789474       0.15789474       0.00000000 </v>
   <v>       0.14035088       0.14035088       0.00000000 </v>
   <v>       0.12280702       0.12280702       0.00000000 </v>
   <v>       0.10526316       0.10526316       0.00000000 </v>
   <v>       0.08771930       0.08771930       0.00000000 </v>
   <v>       0.07017544       0.07017544       0.00000000 </v>
   <v>       0.05263158       0.05263158       0.00000000 </v>
   <v>       0.03508772       0.03508772       0.00000000 </v>
   <v>       0.01754386       0.01754386       0.00000000 </v>
   <v>       0.00000000       0.00000000       0.00000000 </v>
  </varray>
  <varray name="weights" >
   <v>       0.01666667 </v>
   <v>       0.01666667 </v>
   <v>       0.01666667 </v>
   <v>       0.01666667 </v>
   <v>       0.01666667 </v>
   <v>       0.01666667 </v>
   <v>       0.01666667 </v>
   <v>       0.01666667 </v>
   <v>       0.01666667 </v>
   <v>       0.01666667 </v>
   <v>       0.01666667 </v>
   <v>       0.01666667 </v>
   <v>       0.01666667 </v>
   <v>       0.01666667 </v>
   <v>       0.01666667 </v>
   <v>       0.01666667 </v>
   <v>       0.01666667 </v>
   <v>       0.01666667 </v>
   <v>       0.01666667 </v>
   <v>       0.01666667 </v>
   <v>       0.01666667 </v>
   <v>       0.01666667 </v>
   <v>       0.01666667 </v>
   <v>       0.01666667 </v>
   <v>       0.01666667 </v>
   <v>       0.01666667 </v>
   <v>       0.01666667 </v>
   <v>       0.01666667 </v>
   <v>       0.01666667 </v>
   <v>       0.01666667 </v>
   <v>       0.01666667 </v>
   <v>       0.01666667 </v>
   <v>       0.01666667 </v>
   <v>       0.01666667 </v>
   <v>       0.01666667 </v>
   <v>       0.01666667 </v>
   <v>       0.01666667 </v>
   <v>       0.01666667 </v>
   <v>       0.01666667 </v>
   <v>       0.01666667 </v>
   <v>       0.01666667 </v>
   <v>       0.01666667 </v>
   <v>       0.01666667 </v>
   <v>       0.01666667 </v>
   <v>       0.01666667 </v>
   <v>       0.01666667 </v>
   <v>       0.01666667 </v>
   <v>       0.01666667 </v>
   <v>       0.01666667 </v>
   <v>       0.01666667 </v>
   <v>       0.01666667 </v>
   <v>       0.01666667 </v>
   <v>       0.01666667 </v>
   <v>       0.01666667 </v>
   <v>       0.01666667 </v>
   <v>       0.01666667 </v>
   <v>       0.01666667 </v>
   <v>       0.01666667 </v>
   <v>       0.01666667 </v>
   <v>       0.01666667 </v>
  </varray>
 </kpoints>
 <parameters>
  <separator name="general" >
   <i type="string" name="SYSTEM">Simulation for cell shape cell volume r</i>
   <i type="logical" name="LCOMPAT"> F  </i>
  </separator>
  <separator name="electronic" >
   <i type="string" name="PREC">high</i>
   <i name="ENMAX">    500.00000000</i>
   <i name="ENAUG">    644.87300000</i>
   <i name="EDIFF">      0.00001000</i>
   <i type="int" name="IALGO">    38</i>
   <i type="int" name="IWAVPR">    10</i>
   <i type="int" name="NBANDS">   112</i>
   <i name="NELECT">    156.00000000</i>
   <i type="int" name="TURBO">     0</i>
   <i type="int" name="IRESTART">     0</i>
   <i type="int" name="NREBOOT">     0</i>
   <i type="int" name="NMIN">     0</i>
   <i name="EREF">      0.00000000</i>
   <separator name="electronic smearing" >
    <i type="int" name="ISMEAR">     0</i>
    <i name="SIGMA">      0.01000000</i>
    <i name="KSPACING">      0.50000000</i>
    <i type="logical" name="KGAMMA"> T  </i>
   </separator>
   <separator name="electronic projectors" >
    <i type="logical" name="LREAL"> T  </i>
    <v name="ROPT">     -0.00040000     -0.00040000     -0.00040000</v>
    <i type="int" name="LMAXPAW">  -100</i>
    <i type="int" name="LMAXMIX">     2</i>
    <i type="logical" name="NLSPLINE"> F  </i>
   </separator>
   <separator name="electronic startup" >
    <i type="int" name="ISTART">     1</i>
    <i type="int" name="ICHARG">    11</i>
    <i type="int" name="INIWAV">     1</i>
   </separator>
   <separator name="electronic spin" >
    <i type="int" name="ISPIN">     1</i>
    <i type="logical" name="LNONCOLLINEAR"> F  </i>
    <v name="MAGMOM">      1.00000000      1.00000000      1.00000000      1.00000000      1.00000000      1.00000000      1.00000000      1.00000000      1.00000000      1.00000000      1.00000000      1.00000000      1.00000000      1.00000000      1.00000000      1.00000000      1.00000000      1.00000000      1.00000000      1.00000000
      1.00000000      1.00000000      1.00000000      1.00000000      1.00000000      1.00000000      1.00000000      1.00000000      1.00000000      1.00000000      1.00000000      1.00000000      1.00000000      1.00000000      1.00000000      1.00000000      1.00000000      1.00000000      1.00000000      1.00000000
      1.00000000      1.00000000      1.00000000      1.00000000      1.00000000      1.00000000      1.00000000      1.00000000</v>
    <i name="NUPDOWN">     -1.00000000</i>
    <i type="logical" name="LSORBIT"> F  </i>
    <v name="SAXIS">      0.00000000      0.00000000      1.00000000</v>
    <i type="logical" name="LSPIRAL"> F  </i>
    <v name="QSPIRAL">      0.00000000      0.00000000      0.00000000</v>
    <i type="logical" name="LZEROZ"> F  </i>
   </separator>
   <separator name="electronic exchange-correlation" >
    <i type="logical" name="LASPH"> F  </i>
    <i type="logical" name="LMETAGGA"> F  </i>
   </separator>
   <separator name="electronic convergence" >
    <i type="int" name="NELM">   200</i>
    <i type="int" name="NELMDL">     0</i>
    <i type="int" name="NELMIN">     2</i>
    <i name="ENINI">    500.00000000</i>
    <separator name="electronic convergence detail" >
     <i type="logical" name="LDIAG"> T  </i>
     <i type="logical" name="LSUBROT"> F  </i>
     <i name="WEIMIN">      0.00000000</i>
     <i name="EBREAK">      0.00000002</i>
     <i name="DEPER">      0.30000000</i>
     <i type="int" name="NRMM">     4</i>
     <i name="TIME">      0.40000000</i>
    </separator>
   </separator>
   <separator name="electronic mixer" >
    <i name="AMIX">      0.40000000</i>
    <i name="BMIX">      1.00000000</i>
    <i name="AMIN">      0.10000000</i>
    <i name="AMIX_MAG">      1.60000000</i>
    <i name="BMIX_MAG">      1.00000000</i>
    <separator name="electronic mixer details" >
     <i type="int" name="IMIX">     4</i>
     <i type="logical" name="MIXFIRST"> F  </i>
     <i type="int" name="MAXMIX">   -45</i>
     <i name="WC">    100.00000000</i>
     <i type="int" name="INIMIX">     1</i>
     <i type="int" name="MIXPRE">     1</i>
     <i type="int" name="MREMOVE">     5</i>
    </separator>
   </separator>
   <separator name="electronic dipolcorrection" >
    <i type="logical" name="LDIPOL"> F  </i>
    <i type="logical" name="LMONO"> F  </i>
    <i type="int" name="IDIPOL">     0</i>
    <i name="EPSILON">      1.00000000</i>
    <v name="DIPOL">   -100.00000000   -100.00000000   -100.00000000</v>
    <i name="EFIELD">      0.00000000</i>
   </separator>
  </separator>
  <separator name="grids" >
   <i type="int" name="NGX">   108</i>
   <i type="int" name="NGY">   108</i>
   <i type="int" name="NGZ">   150</i>
   <i type="int" name="NGXF">   162</i>
   <i type="int" name="NGYF">   162</i>
   <i type="int" name="NGZF">   224</i>
   <i type="logical" name="ADDGRID"> F  </i>
  </separator>
  <separator name="ionic" >
   <i type="int" name="NSW">     0</i>
   <i type="int" name="IBRION">    -1</i>
   <i type="int" name="MDALGO">     0</i>
   <i type="int" name="ISIF">     2</i>
   <i name="PSTRESS">      0.00000000</i>
   <i name="EDIFFG">     -0.01000000</i>
   <i type="int" name="NFREE">     0</i>
   <i name="POTIM">      0.30000000</i>
   <i name="SMASS">     -3.00000000</i>
   <i name="SCALEE">      1.00000000</i>
  </separator>
  <separator name="ionic md" >
   <i name="TEBEG">      0.00010000</i>
   <i name="TEEND">      0.00010000</i>
   <i type="int" name="NBLOCK">     1</i>
   <i type="int" name="KBLOCK">     1</i>
   <i type="int" name="NPACO">   256</i>
   <i name="APACO">     16.00000000</i>
  </separator>
  <separator name="symmetry" >
   <i type="int" name="ISYM">     2</i>
   <i name="SYMPREC">      0.00001000</i>
  </separator>
  <separator name="dos" >
   <i type="int" name="LORBIT">     0</i>
   <v name="RWIGS">     -1.00000000     -1.00000000     -1.00000000</v>
   <i type="int" name="NEDOS">   301</i>
   <i name="EMIN">     10.00000000</i>
   <i name="EMAX">    -10.00000000</i>
   <i name="EFERMI">      0.00000000</i>
  </separator>
  <separator name="writing" >
   <i type="int" name="NWRITE">     0</i>
   <i type="logical" name="LWAVE"> F  </i>
   <i type="logical" name="LDOWNSAMPLE"> F  </i>
   <i type="logical" name="LCHARG"> F  </i>
   <i type="logical" name="LPARD"> F  </i>
   <i type="logical" name="LVTOT"> F  </i>
   <i type="logical" name="LVHAR"> F  </i>
   <i type="logical" name="LELF"> F  </i>
   <i type="logical" name="LOPTICS"> F  </i>
   <v name="STM">      0.00000000      0.00000000      0.00000000      0.00000000      0.00000000      0.00000000      0.00000000</v>
  </separator>
  <separator name="performance" >
   <i type="int" name="NPAR">    16</i>
   <i type="int" name="NSIM">     4</i>
   <i type="int" name="NBLK">    -1</i>
   <i type="logical" name="LPLANE"> T  </i>
   <i type="logical" name="LSCALAPACK"> T  </i>
   <i type="logical" name="LSCAAWARE"> F  </i>
   <i type="logical" name="LSCALU"> F  </i>
   <i type="logical" name="LASYNC"> F  </i>
   <i type="logical" name="LORBITALREAL"> F  </i>
  </separator>
  <separator name="miscellaneous" >
   <i type="int" name="IDIOT">     3</i>
   <i type="int" name="ISPECIAL">     0</i>
   <i type="logical" name="LMUSIC"> F  </i>
   <v name="POMASS">     14.00100000     12.01100000      1.00000000</v>
   <v name="DARWINR">      0.00000000      0.00000000      0.00000000</v>
   <v name="DARWINV">      1.00000000      1.00000000      1.00000000</v>
   <i type="logical" name="LCORR"> T  </i>
  </separator>
  <i type="logical" name="GGA_COMPAT"> T  </i>
  <i type="logical" name="LBERRY"> F  </i>
  <i type="int" name="ICORELEVEL">     0</i>
  <i type="logical" name="LDAU"> F  </i>
  <i type="int" name="I_CONSTRAINED_M">     0</i>
  <separator name="electronic exchange-correlation" >
   <i type="string" name="GGA">PE</i>
   <i type="int" name="VOSKOWN">     0</i>
   <i type="logical" name="LHFCALC"> F  </i>
   <i type="string" name="PRECFOCK"></i>
   <i type="logical" name="LSYMGRAD"> F  </i>
   <i type="logical" name="LHFONE"> F  </i>
   <i type="logical" name="LRHFCALC"> F  </i>
   <i type="logical" name="LTHOMAS"> F  </i>
   <i type="logical" name="LMODELHF"> F  </i>
   <i name="ENCUT4O">     -1.00000000</i>
   <i type="int" name="EXXOEP">     0</i>
   <i type="int" name="FOURORBIT">     0</i>
   <i name="AEXX">      0.00000000</i>
   <i name="HFALPHA">      0.00000000</i>
   <i name="MCALPHA">      0.00000000</i>
   <i name="ALDAX">      1.00000000</i>
   <i name="AGGAX">      1.00000000</i>
   <i name="ALDAC">      1.00000000</i>
   <i name="AGGAC">      1.00000000</i>
   <i type="int" name="NKREDX">     1</i>
   <i type="int" name="NKREDY">     1</i>
   <i type="int" name="NKREDZ">     1</i>
   <i type="logical" name="SHIFTRED"> F  </i>
   <i type="logical" name="ODDONLY"> F  </i>
   <i type="logical" name="EVENONLY"> F  </i>
   <i type="int" name="LMAXFOCK">     0</i>
   <i type="int" name="NMAXFOCKAE">     0</i>
   <i type="logical" name="LFOCKAEDFT"> F  </i>
   <i name="HFSCREEN">      0.00000000</i>
   <i name="HFSCREENC">      0.00000000</i>
   <i type="int" name="NBANDSGWLOW">     0</i>
  </separator>
  <separator name="vdW DFT" >
   <i type="logical" name="LUSE_VDW"> F  </i>
   <i name="Zab_VDW">     -0.84910000</i>
   <i name="PARAM1">      0.12340000</i>
   <i name="PARAM2">      1.00000000</i>
   <i name="PARAM3">      0.00000000</i>
  </separator>
  <separator name="model GW" >
   <i type="int" name="MODEL_GW">     0</i>
   <i name="MODEL_EPS0">     46.81686101</i>
   <i name="MODEL_ALPHA">      1.00000000</i>
  </separator>
  <separator name="linear response parameters" >
   <i type="logical" name="LEPSILON"> F  </i>
   <i type="logical" name="LRPA"> F  </i>
   <i type="logical" name="LNABLA"> F  </i>
   <i type="logical" name="LVEL"> F  </i>
   <i type="int" name="KINTER">     0</i>
   <i name="CSHIFT">      0.10000000</i>
   <i name="OMEGAMAX">     -1.00000000</i>
   <i name="DEG_THRESHOLD">      0.00200000</i>
   <i name="RTIME">     -0.10000000</i>
   <i name="WPLASMAI">      0.00000000</i>
   <v name="DFIELD">      0.00000000      0.00000000      0.00000000</v>
   <v name="WPLASMA">      0.00000000      0.00000000      0.00000000      0.00000000      0.00000000      0.00000000      0.00000000      0.00000000      0.00000000</v>
  </separator>
  <separator name="orbital magnetization" >
   <i type="logical" name="NUCIND"> F  </i>
   <v name="MAGPOS">      0.00000000      0.00000000      0.00000000</v>
   <i type="logical" name="LNICSALL"> T  </i>
   <i type="logical" name="ORBITALMAG"> F  </i>
   <i type="logical" name="LMAGBLOCH"> F  </i>
   <i type="logical" name="LCHIMAG"> F  </i>
   <i type="logical" name="LGAUGE"> T  </i>
   <i type="int" name="MAGATOM">     0</i>
   <v name="MAGDIPOL">      0.00000000      0.00000000      0.00000000</v>
   <v name="AVECCONST">      0.00000000      0.00000000      0.00000000</v>
  </separator>
  <separator name="response functions" >
   <i type="logical" name="LADDER"> F  </i>
   <i type="logical" name="LRPAFORCE"> F  </i>
   <i type="logical" name="LFXC"> F  </i>
   <i type="logical" name="LHARTREE"> T  </i>
   <i type="int" name="IBSE">     0</i>
   <v type="int" name="KPOINT">    -1     0     0     0</v>
   <i type="logical" name="LTCTE"> F  </i>
   <i type="logical" name="LTETE"> F  </i>
   <i type="logical" name="LTRIPLET"> F  </i>
   <i type="logical" name="LFXCEPS"> F  </i>
   <i type="logical" name="LFXHEG"> F  </i>
   <i type="int" name="NATURALO">     2</i>
   <i type="logical" name="L2ORDER"> F  </i>
   <i type="logical" name="LMP2LT"> F  </i>
   <i type="logical" name="LUSEW"> F  </i>
   <i name="ENCUTGW">     -2.00000000</i>
   <i name="ENCUTGWSOFT">     -2.00000000</i>
   <i name="ENCUTLF">     -1.00000000</i>
   <i type="int" name="LMAXMP2">    -1</i>
   <i name="SCISSOR">      0.00000000</i>
   <i type="int" name="NOMEGA">     0</i>
   <i type="int" name="NOMEGAR">     0</i>
   <i type="int" name="NBANDSGW">    -1</i>
   <i type="int" name="NBANDSO">    -1</i>
   <i type="int" name="NBANDSV">    -1</i>
   <i type="int" name="NELM">   200</i>
   <i type="int" name="NELMHF">     1</i>
   <i type="int" name="DIM">     3</i>
   <i type="int" name="ANTIRES">     0</i>
   <i name="OMEGAMAX">    -30.00000000</i>
   <i name="OMEGAMIN">    -30.00000000</i>
   <i name="OMEGATL">   -200.00000000</i>
   <i type="int" name="OMEGAGRID">   140</i>
   <i name="CSHIFT">     -0.10000000</i>
   <i type="logical" name="SELFENERGY"> F  </i>
   <i type="logical" name="LSPECTRAL"> F  </i>
   <i type="logical" name="LSPECTRALGW"> F  </i>
   <i type="logical" name="LSINGLES"> F  </i>
   <i type="logical" name="LFERMIGW"> F  </i>
   <i type="logical" name="ODDONLYGW"> F  </i>
   <i type="logical" name="EVENONLYGW"> F  </i>
   <i type="int" name="NKREDLFX">     1</i>
   <i type="int" name="NKREDLFY">     1</i>
   <i type="int" name="NKREDLFZ">     1</i>
   <i type="int" name="MAXMEM">  2800</i>
   <i type="int" name="TELESCOPE">     0</i>
   <i type="int" name="TAUPAR">     1</i>
   <i type="int" name="OMEGAPAR">    -1</i>
   <i name="LAMBDA">      1.00000000</i>
  </separator>
  <separator name="External order field" >
   <i name="OFIELD_KAPPA">      0.00000000</i>
   <v name="OFIELD_K">      0.00000000      0.00000000      0.00000000</v>
   <i name="OFIELD_Q6_NEAR">      0.00000000</i>
   <i name="OFIELD_Q6_FAR">      0.00000000</i>
   <i name="OFIELD_A">      0.00000000</i>
  </separator>
  <separator name="solvation model" >
   <i type="logical" name="LSOL"> F  </i>
  </separator>
 </parameters>
 <atominfo>
  <atoms>      48 </atoms>
  <types>       3 </types>
  <array name="atoms" >
   <dimension dim="1">ion</dimension>
   <field type="string">element</field>
   <field type="int">atomtype</field>
   <set>
    <rc><c>N </c><c>   1</c></rc>
    <rc><c>N </c><c>   1</c></rc>
    <rc><c>N </c><c>   1</c></rc>
    <rc><c>N </c><c>   1</c></rc>
    <rc><c>N </c><c>   1</c></rc>
    <rc><c>N </c><c>   1</c></rc>
    <rc><c>N </c><c>   1</c></rc>
    <rc><c>N </c><c>   1</c></rc>
    <rc><c>N </c><c>   1</c></rc>
    <rc><c>C </c><c>   2</c></rc>
    <rc><c>C </c><c>   2</c></rc>
    <rc><c>C </c><c>   2</c></rc>
    <rc><c>C </c><c>   2</c></rc>
    <rc><c>C </c><c>   2</c></rc>
    <rc><c>C </c><c>   2</c></rc>
    <rc><c>C </c><c>   2</c></rc>
    <rc><c>C </c><c>   2</c></rc>
    <rc><c>C </c><c>   2</c></rc>
    <rc><c>C </c><c>   2</c></rc>
    <rc><c>C </c><c>   2</c></rc>
    <rc><c>C </c><c>   2</c></rc>
    <rc><c>C </c><c>   2</c></rc>
    <rc><c>C </c><c>   2</c></rc>
    <rc><c>C </c><c>   2</c></rc>
    <rc><c>C </c><c>   2</c></rc>
    <rc><c>C </c><c>   2</c></rc>
    <rc><c>C </c><c>   2</c></rc>
    <rc><c>C </c><c>   2</c></rc>
    <rc><c>C </c><c>   2</c></rc>
    <rc><c>C </c><c>   2</c></rc>
    <rc><c>C </c><c>   2</c></rc>
    <rc><c>C </c><c>   2</c></rc>
    <rc><c>C </c><c>   2</c></rc>
    <rc><c>H </c><c>   3</c></rc>
    <rc><c>H </c><c>   3</c></rc>
    <rc><c>H </c><c>   3</c></rc>
    <rc><c>H </c><c>   3</c></rc>
    <rc><c>H </c><c>   3</c></rc>
    <rc><c>H </c><c>   3</c></rc>
    <rc><c>H </c><c>   3</c></rc>
    <rc><c>H </c><c>   3</c></rc>
    <rc><c>H </c><c>   3</c></rc>
    <rc><c>H </c><c>   3</c></rc>
    <rc><c>H </c><c>   3</c></rc>
    <rc><c>H </c><c>   3</c></rc>
    <rc><c>H </c><c>   3</c></rc>
    <rc><c>H </c><c>   3</c></rc>
    <rc><c>H </c><c>   3</c></rc>
   </set>
  </array>
  <array name="atomtypes" >
   <dimension dim="1">type</dimension>
   <field type="int">atomspertype</field>
   <field type="string">element</field>
   <field>mass</field>
   <field>valence</field>
   <field type="string">pseudopotential</field>
   <set>
    <rc><c>   9</c><c>N </c><c>     14.00100000</c><c>      5.00000000</c><c>  PAW_PBE N 08Apr2002                   </c></rc>
    <rc><c>  24</c><c>C </c><c>     12.01100000</c><c>      4.00000000</c><c>  PAW_PBE C 08Apr2002                   </c></rc>
    <rc><c>  15</c><c>H </c><c>      1.00000000</c><c>      1.00000000</c><c>  PAW_PBE H 15Jun2001                   </c></rc>
   </set>
  </array>
 </atominfo>
 <structure name="initialpos" >
  <crystal>
   <varray name="basis" >
    <v>      14.69546797       0.00838544       0.00000000 </v>
    <v>      -7.34047707      12.73902208       0.00000000 </v>
    <v>       0.00000000       0.00000000      20.00000000 </v>
   </varray>
   <i name="volume">   3745.34888075 </i>
   <varray name="rec_basis" >
    <v>       0.06802582       0.03919783       0.00000000 </v>
    <v>      -0.00004478       0.07847316       0.00000000 </v>
    <v>       0.00000000       0.00000000       0.05000000 </v>
   </varray>
  </crystal>
  <varray name="positions" >
   <v>       0.91581844       0.45787839       0.42475166 </v>
   <v>       0.50541323       0.04749850       0.42508985 </v>
   <v>       0.49896134       0.45864689       0.42551684 </v>
   <v>       0.43294860       0.89232744       0.36496105 </v>
   <v>       0.41719451       0.53143492       0.36450595 </v>
   <v>       0.07016808       0.52897054       0.36394075 </v>
   <v>       0.44266491       0.93521639       0.54541484 </v>
   <v>       0.44757133       0.52154388       0.54511307 </v>
   <v>       0.02972610       0.52477716       0.54425854 </v>
   <v>       0.75022987       0.37922200       0.48437490 </v>
   <v>       0.69445290       0.43341598       0.48554335 </v>
   <v>       0.69540649       0.26940513       0.48352382 </v>
   <v>       0.86722321       0.43815217       0.48425946 </v>
   <v>       0.92425085       0.47199794       0.54394815 </v>
   <v>       0.58457440       0.37859301       0.48521974 </v>
   <v>       0.53049846       0.26878930       0.48486810 </v>
   <v>       0.58553720       0.21383703       0.48406888 </v>
   <v>       0.52727390       0.09688675       0.48439434 </v>
   <v>       0.52572737       0.43688764       0.48515274 </v>
   <v>       0.49567109       0.04062626       0.54446363 </v>
   <v>       0.50012287       0.46849748       0.54487151 </v>
   <v>       0.19630439       0.60277395       0.48533874 </v>
   <v>       0.25170471       0.54809880       0.48425099 </v>
   <v>       0.36170296       0.60223500       0.48570268 </v>
   <v>       0.41634300       0.71218247       0.48621308 </v>
   <v>       0.36204855       0.76802811       0.48672176 </v>
   <v>       0.25202115       0.71278960       0.48624051 </v>
   <v>       0.42086798       0.88505358       0.48702016 </v>
   <v>       0.45261395       0.94225767       0.42582488 </v>
   <v>       0.42004340       0.54335812       0.48641399 </v>
   <v>       0.44644080       0.51157509       0.42554594 </v>
   <v>       0.07920693       0.54444699       0.48570724 </v>
   <v>       0.02118245       0.51080564       0.42484860 </v>
   <v>       0.73862755       0.22688211       0.48247652 </v>
   <v>       0.73694972       0.51905608       0.48589351 </v>
   <v>       0.88457228       0.45622350       0.59224058 </v>
   <v>       0.51313321       0.08096956       0.59257919 </v>
   <v>       0.52226333       0.45101674       0.59325717 </v>
   <v>       0.50202552       0.75477840       0.48745703 </v>
   <v>       0.44482478       0.22573569       0.48480074 </v>
   <v>       0.20924744       0.75577452       0.48790443 </v>
   <v>       0.20874744       0.46245785       0.48376884 </v>
   <v>       0.37467885       0.81657079       0.36261382 </v>
   <v>       0.44291370       0.93789841       0.32444979 </v>
   <v>       0.39791987       0.58846026       0.36159493 </v>
   <v>       0.45228012       0.52057197       0.32405521 </v>
   <v>       0.14726966       0.58314218       0.36078998 </v>
   <v>       0.02472560       0.51619658       0.32299550 </v>
  </varray>
 </structure>
 <calculation>
  <scstep>
   <time name="dav">   28.18   28.39</time>
   <time name="total">   28.28   28.49</time>
   <energy>
    <i name="alphaZ">     30.12937724 </i>
    <i name="ewald">  16307.09012637 </i>
    <i name="hartreedc"> -21353.93134048 </i>
    <i name="XCdc">    554.29506781 </i>
    <i name="pawpsdc">  14952.93830948 </i>
    <i name="pawaedc"> -14982.54150250 </i>
    <i name="eentropy">     -0.00000000 </i>
    <i name="bandstr">  -1950.61562231 </i>
    <i name="atom">   6099.67221346 </i>
    <i name="e_fr_energy">   -342.96337093 </i>
    <i name="e_wo_entrp">   -342.96337093 </i>
    <i name="e_0_energy">   -342.96337093 </i>
   </energy>
  </scstep>
  <scstep>
   <time name="dav">   31.96   32.19</time>
   <time name="total">   31.97   32.19</time>
   <energy>
    <i name="e_fr_energy">   -344.66830997 </i>
    <i name="e_wo_entrp">   -344.66830997 </i>
    <i name="e_0_energy">   -344.66830997 </i>
   </energy>
  </scstep>
  <scstep>
   <time name="dav">   31.78   32.00</time>
   <time name="total">   31.78   32.00</time>
   <energy>
    <i name="e_fr_energy">   -344.69828852 </i>
    <i name="e_wo_entrp">   -344.69828852 </i>
    <i name="e_0_energy">   -344.69828852 </i>
   </energy>
  </scstep>
  <scstep>
   <time name="dav">   32.02   32.25</time>
   <time name="total">   32.03   32.25</time>
   <energy>
    <i name="e_fr_energy">   -344.69907387 </i>
    <i name="e_wo_entrp">   -344.69907387 </i>
    <i name="e_0_energy">   -344.69907387 </i>
   </energy>
  </scstep>
  <scstep>
   <time name="dav">   31.65   31.88</time>
   <time name="total">   31.65   31.89</time>
   <energy>
    <i name="e_fr_energy">   -344.69910135 </i>
    <i name="e_wo_entrp">   -344.69910135 </i>
    <i name="e_0_energy">   -344.69910135 </i>
   </energy>
  </scstep>
  <scstep>
   <time name="dav">   26.05   26.24</time>
   <time name="total">   26.06   26.25</time>
   <energy>
    <i name="alphaZ">     30.12937724 </i>
    <i name="ewald">  16307.09012637 </i>
    <i name="hartreedc"> -21353.93134048 </i>
    <i name="XCdc">    554.29506781 </i>
    <i name="pawpsdc">  14952.93830948 </i>
    <i name="pawaedc"> -14982.54150250 </i>
    <i name="eentropy">     -0.00000000 </i>
    <i name="bandstr">  -1952.35135290 </i>
    <i name="atom">   6099.67221346 </i>
    <i name="e_fr_energy">   -344.69910153 </i>
    <i name="e_wo_entrp">   -344.69910153 </i>
    <i name="e_0_energy">   -344.69910153 </i>
   </energy>
  </scstep>
  <structure>
   <crystal>
    <varray name="basis" >
     <v>      14.69546797       0.00838544       0.00000000 </v>
     <v>      -7.34047707      12.73902208       0.00000000 </v>
     <v>       0.00000000       0.00000000      20.00000000 </v>
    </varray>
    <i name="volume">   3745.34888075 </i>
    <varray name="rec_basis" >
     <v>       0.06802582       0.03919783       0.00000000 </v>
     <v>      -0.00004478       0.07847316       0.00000000 </v>
     <v>       0.00000000       0.00000000       0.05000000 </v>
    </varray>
   </crystal>
   <varray name="positions" >
    <v>       0.91581844       0.45787839       0.42475166 </v>
    <v>       0.50541323       0.04749850       0.42508985 </v>
    <v>       0.49896134       0.45864689       0.42551684 </v>
    <v>       0.43294860       0.89232744       0.36496105 </v>
    <v>       0.41719451       0.53143492       0.36450595 </v>
    <v>       0.07016808       0.52897054       0.36394075 </v>
    <v>       0.44266491       0.93521639       0.54541484 </v>
    <v>       0.44757133       0.52154388       0.54511307 </v>
    <v>       0.02972610       0.52477716       0.54425854 </v>
    <v>       0.75022987       0.37922200       0.48437490 </v>
    <v>       0.69445290       0.43341598       0.48554335 </v>
    <v>       0.69540649       0.26940513       0.48352382 </v>
    <v>       0.86722321       0.43815217       0.48425946 </v>
    <v>       0.92425085       0.47199794       0.54394815 </v>
    <v>       0.58457440       0.37859301       0.48521974 </v>
    <v>       0.53049846       0.26878930       0.48486810 </v>
    <v>       0.58553720       0.21383703       0.48406888 </v>
    <v>       0.52727390       0.09688675       0.48439434 </v>
    <v>       0.52572737       0.43688764       0.48515274 </v>
    <v>       0.49567109       0.04062626       0.54446363 </v>
    <v>       0.50012287       0.46849748       0.54487151 </v>
    <v>       0.19630439       0.60277395       0.48533874 </v>
    <v>       0.25170471       0.54809880       0.48425099 </v>
    <v>       0.36170296       0.60223500       0.48570268 </v>
    <v>       0.41634300       0.71218247       0.48621308 </v>
    <v>       0.36204855       0.76802811       0.48672176 </v>
    <v>       0.25202115       0.71278960       0.48624051 </v>
    <v>       0.42086798       0.88505358       0.48702016 </v>
    <v>       0.45261395       0.94225767       0.42582488 </v>
    <v>       0.42004340       0.54335812       0.48641399 </v>
    <v>       0.44644080       0.51157509       0.42554594 </v>
    <v>       0.07920693       0.54444699       0.48570724 </v>
    <v>       0.02118245       0.51080564       0.42484860 </v>
    <v>       0.73862755       0.22688211       0.48247652 </v>
    <v>       0.73694972       0.51905608       0.48589351 </v>
    <v>       0.88457228       0.45622350       0.59224058 </v>
    <v>       0.51313321       0.08096956       0.59257919 </v>
    <v>       0.52226333       0.45101674       0.59325717 </v>
    <v>       0.50202552       0.75477840       0.48745703 </v>
    <v>       0.44482478       0.22573569       0.48480074 </v>
    <v>       0.20924744       0.75577452       0.48790443 </v>
    <v>       0.20874744       0.46245785       0.48376884 </v>
    <v>       0.37467885       0.81657079       0.36261382 </v>
    <v>       0.44291370       0.93789841       0.32444979 </v>
    <v>       0.39791987       0.58846026       0.36159493 </v>
    <v>       0.45228012       0.52057197       0.32405521 </v>
    <v>       0.14726966       0.58314218       0.36078998 </v>
    <v>       0.02472560       0.51619658       0.32299550 </v>
   </varray>
  </structure>
  <varray name="forces" >
   <v>       0.00389049       0.00349754       0.00247592 </v>
   <v>       0.00571350       0.00204252      -0.00043291 </v>
   <v>      -0.00040823       0.00014043       0.00062759 </v>
   <v>      -0.00120240      -0.00558049      -0.00280468 </v>
   <v>       0.00375992       0.00044092      -0.00249072 </v>
   <v>       0.00081343       0.00102925       0.00364087 </v>
   <v>       0.00202464       0.00559731       0.00366897 </v>
   <v>       0.00004659       0.00326679       0.00234268 </v>
   <v>      -0.00057070       0.00163495      -0.00125029 </v>
   <v>       0.00023806      -0.00057492      -0.00177854 </v>
   <v>      -0.00069715       0.00109556       0.00099825 </v>
   <v>       0.00421872      -0.00238643       0.00140620 </v>
   <v>      -0.00279555      -0.00192884      -0.00287126 </v>
   <v>       0.00156534      -0.00062862       0.00075142 </v>
   <v>      -0.00427333      -0.00678860      -0.00138016 </v>
   <v>       0.00641702       0.00349132       0.00052632 </v>
   <v>      -0.00659438       0.00165694      -0.00406712 </v>
   <v>      -0.00206887      -0.00280622      -0.00185728 </v>
   <v>      -0.00647197       0.00028895       0.00080443 </v>
   <v>      -0.00177497      -0.00061307       0.00073749 </v>
   <v>       0.00056638       0.00271424       0.00004193 </v>
   <v>      -0.00059127      -0.00515141       0.00010172 </v>
   <v>       0.00085940      -0.00334301       0.00222413 </v>
   <v>       0.00194005       0.00773812       0.00014165 </v>
   <v>      -0.00317691      -0.00342490       0.00247152 </v>
   <v>       0.01276757      -0.00174359       0.00022804 </v>
   <v>      -0.00338602       0.00180317      -0.00063091 </v>
   <v>      -0.00164695       0.00212183      -0.00307383 </v>
   <v>      -0.00414499       0.00257255       0.00669813 </v>
   <v>       0.00233761      -0.00084976       0.00154615 </v>
   <v>      -0.00051378      -0.00091682      -0.00234013 </v>
   <v>      -0.00129588      -0.00229948       0.00446174 </v>
   <v>      -0.00149988      -0.00513534      -0.00290326 </v>
   <v>      -0.00286318       0.00024160      -0.00243226 </v>
   <v>      -0.00032444       0.00037053       0.00164126 </v>
   <v>      -0.00039558       0.00199128      -0.00074540 </v>
   <v>       0.00071692      -0.00143371      -0.00411391 </v>
   <v>      -0.00180917       0.00084225      -0.00173864 </v>
   <v>      -0.00299687       0.00001240       0.00094894 </v>
   <v>      -0.00281089      -0.00288146      -0.00168233 </v>
   <v>      -0.00267050       0.00135774       0.00063052 </v>
   <v>       0.00021453       0.00005671      -0.00080332 </v>
   <v>       0.00145050       0.00291670       0.00076733 </v>
   <v>       0.00228597      -0.00046282      -0.00158613 </v>
   <v>      -0.00049840       0.00549084       0.00258327 </v>
   <v>      -0.00075009       0.00124835      -0.00040670 </v>
   <v>       0.00185415      -0.00503276      -0.00098875 </v>
   <v>       0.00455155      -0.00167855      -0.00008796 </v>
  </varray>
  <varray name="stress" >
   <v>       0.02739251      -0.00154912      -0.05106423 </v>
   <v>      -0.00154913       0.04363642       0.05568387 </v>
   <v>      -0.05106422       0.05568388      -0.29404194 </v>
  </varray>
  <energy>
   <i name="e_fr_energy">   -345.74496369 </i>
   <i name="e_wo_entrp">   -345.74496369 </i>
   <i name="e_0_energy">     -0.00000000 </i>
  </energy>
  <time name="totalsc">  203.49  204.99</time>
  <eigenvalues>
   <array>
    <dimension dim="1">band</dimension>
    <dimension dim="2">kpoint</dimension>
    <dimension dim="3">spin</dimension>
    <field>eigene</field>
    <field>occ</field>
    <set>
     <set comment="spin 1">
      <set comment="kpoint 1">
       <r>  -24.2271    1.0000 </r>
       <r>  -24.2042    1.0000 </r>
       <r>  -24.1904    1.0000 </r>
       <r>  -22.6666    1.0000 </r>
       <r>  -22.6490    1.0000 </r>
       <r>  -22.6304    1.0000 </r>
       <r>  -21.9539    1.0000 </r>
       <r>  -21.7310    1.0000 </r>
       <r>  -21.7133    1.0000 </r>
       <r>  -21.1169    1.0000 </r>
       <r>  -20.8046    1.0000 </r>
       <r>  -19.2486    1.0000 </r>
       <r>  -19.2319    1.0000 </r>
       <r>  -18.7478    1.0000 </r>
       <r>  -18.7384    1.0000 </r>
       <r>  -18.1426    1.0000 </r>
       <r>  -17.2826    1.0000 </r>
       <r>  -17.2763    1.0000 </r>
       <r>  -16.0500    1.0000 </r>
       <r>  -15.9932    1.0000 </r>
       <r>  -15.9762    1.0000 </r>
       <r>  -15.5301    1.0000 </r>
       <r>  -15.5184    1.0000 </r>
       <r>  -15.5003    1.0000 </r>
       <r>  -14.5071    1.0000 </r>
       <r>  -14.4994    1.0000 </r>
       <r>  -14.0722    1.0000 </r>
       <r>  -14.0599    1.0000 </r>
       <r>  -13.4165    1.0000 </r>
       <r>  -12.9750    1.0000 </r>
       <r>  -12.9501    1.0000 </r>
       <r>  -12.7924    1.0000 </r>
       <r>  -12.6416    1.0000 </r>
       <r>  -12.1761    1.0000 </r>
       <r>  -12.1581    1.0000 </r>
       <r>  -11.7099    1.0000 </r>
       <r>  -11.4908    1.0000 </r>
       <r>  -11.4754    1.0000 </r>
       <r>  -11.3967    1.0000 </r>
       <r>  -11.3512    1.0000 </r>
       <r>  -11.3260    1.0000 </r>
       <r>  -11.1128    1.0000 </r>
       <r>  -11.1109    1.0000 </r>
       <r>  -11.1050    1.0000 </r>
       <r>  -10.6559    1.0000 </r>
       <r>  -10.1849    1.0000 </r>
       <r>  -10.1489    1.0000 </r>
       <r>   -9.8188    1.0000 </r>
       <r>   -9.7857    1.0000 </r>
       <r>   -9.6310    1.0000 </r>
       <r>   -9.4797    1.0000 </r>
       <r>   -9.2989    1.0000 </r>
       <r>   -9.2893    1.0000 </r>
       <r>   -8.7759    1.0000 </r>
       <r>   -8.4821    1.0000 </r>
       <r>   -8.2690    1.0000 </r>
       <r>   -8.2364    1.0000 </r>
       <r>   -8.1577    1.0000 </r>
       <r>   -8.1025    1.0000 </r>
       <r>   -8.0088    1.0000 </r>
       <r>   -7.9758    1.0000 </r>
       <r>   -7.9654    1.0000 </r>
       <r>   -7.0159    1.0000 </r>
       <r>   -6.9929    1.0000 </r>
       <r>   -6.7891    1.0000 </r>
       <r>   -6.6466    1.0000 </r>
       <r>   -6.6411    1.0000 </r>
       <r>   -6.4210    1.0000 </r>
       <r>   -6.0829    1.0000 </r>
       <r>   -6.0787    1.0000 </r>
       <r>   -5.7344    1.0000 </r>
       <r>   -5.7265    1.0000 </r>
       <r>   -5.2564    1.0000 </r>
       <r>   -5.1629    1.0000 </r>
       <r>   -5.1044    1.0000 </r>
       <r>   -4.9670    1.0000 </r>
       <r>   -4.9469    1.0000 </r>
       <r>   -4.8840    1.0000 </r>
       <r>   -1.7572    0.0000 </r>
       <r>   -1.7263    0.0000 </r>
       <r>   -1.4899    0.0000 </r>
       <r>   -1.1560    0.0000 </r>
       <r>   -1.1312    0.0000 </r>
       <r>   -0.9824    0.0000 </r>
       <r>   -0.8825    0.0000 </r>
       <r>   -0.7357    0.0000 </r>
       <r>   -0.5369    0.0000 </r>
       <r>   -0.4688    0.0000 </r>
       <r>   -0.4052    0.0000 </r>
       <r>    0.1607    0.0000 </r>
       <r>    0.3291    0.0000 </r>
       <r>    0.4508    0.0000 </r>
       <r>    0.5351    0.0000 </r>
       <r>    0.6104    0.0000 </r>
       <r>    0.7565    0.0000 </r>
       <r>    0.7908    0.0000 </r>
       <r>    0.9953    0.0000 </r>
       <r>    1.0975    0.0000 </r>
       <r>    1.0996    0.0000 </r>
       <r>    1.3423    0.0000 </r>
       <r>    1.4242    0.0000 </r>
       <r>    1.4293    0.0000 </r>
       <r>    1.4671    0.0000 </r>
       <r>    1.5517    0.0000 </r>
       <r>    1.5620    0.0000 </r>
       <r>    1.5775    0.0000 </r>
       <r>    1.6442    0.0000 </r>
       <r>    1.7397    0.0000 </r>
       <r>    1.7479    0.0000 </r>
       <r>    1.7616    0.0000 </r>
       <r>    1.8173    0.0000 </r>
       <r>    1.9684    0.0000 </r>
      </set>
      <set comment="kpoint 2">
       <r>  -24.2271    1.0000 </r>
       <r>  -24.2042    1.0000 </r>
       <r>  -24.1904    1.0000 </r>
       <r>  -22.6666    1.0000 </r>
       <r>  -22.6490    1.0000 </r>
       <r>  -22.6304    1.0000 </r>
       <r>  -21.9537    1.0000 </r>
       <r>  -21.7312    1.0000 </r>
       <r>  -21.7135    1.0000 </r>
       <r>  -21.1165    1.0000 </r>
       <r>  -20.8048    1.0000 </r>
       <r>  -19.2484    1.0000 </r>
       <r>  -19.2317    1.0000 </r>
       <r>  -18.7485    1.0000 </r>
       <r>  -18.7393    1.0000 </r>
       <r>  -18.1405    1.0000 </r>
       <r>  -17.2831    1.0000 </r>
       <r>  -17.2770    1.0000 </r>
       <r>  -16.0499    1.0000 </r>
       <r>  -15.9932    1.0000 </r>
       <r>  -15.9762    1.0000 </r>
       <r>  -15.5301    1.0000 </r>
       <r>  -15.5184    1.0000 </r>
       <r>  -15.5003    1.0000 </r>
       <r>  -14.5066    1.0000 </r>
       <r>  -14.4990    1.0000 </r>
       <r>  -14.0726    1.0000 </r>
       <r>  -14.0600    1.0000 </r>
       <r>  -13.4162    1.0000 </r>
       <r>  -12.9758    1.0000 </r>
       <r>  -12.9503    1.0000 </r>
       <r>  -12.7922    1.0000 </r>
       <r>  -12.6417    1.0000 </r>
       <r>  -12.1758    1.0000 </r>
       <r>  -12.1581    1.0000 </r>
       <r>  -11.7099    1.0000 </r>
       <r>  -11.4907    1.0000 </r>
       <r>  -11.4753    1.0000 </r>
       <r>  -11.3966    1.0000 </r>
       <r>  -11.3513    1.0000 </r>
       <r>  -11.3261    1.0000 </r>
       <r>  -11.1148    1.0000 </r>
       <r>  -11.1095    1.0000 </r>
       <r>  -11.1050    1.0000 </r>
       <r>  -10.6550    1.0000 </r>
       <r>  -10.1846    1.0000 </r>
       <r>  -10.1483    1.0000 </r>
       <r>   -9.8195    1.0000 </r>
       <r>   -9.7862    1.0000 </r>
       <r>   -9.6317    1.0000 </r>
       <r>   -9.4791    1.0000 </r>
       <r>   -9.2989    1.0000 </r>
       <r>   -9.2895    1.0000 </r>
       <r>   -8.7761    1.0000 </r>
       <r>   -8.4822    1.0000 </r>
       <r>   -8.2690    1.0000 </r>
       <r>   -8.2367    1.0000 </r>
       <r>   -8.1577    1.0000 </r>
       <r>   -8.1021    1.0000 </r>
       <r>   -8.0090    1.0000 </r>
       <r>   -7.9763    1.0000 </r>
       <r>   -7.9646    1.0000 </r>
       <r>   -7.0157    1.0000 </r>
       <r>   -6.9927    1.0000 </r>
       <r>   -6.7894    1.0000 </r>
       <r>   -6.6466    1.0000 </r>
       <r>   -6.6410    1.0000 </r>
       <r>   -6.4215    1.0000 </r>
       <r>   -6.0830    1.0000 </r>
       <r>   -6.0780    1.0000 </r>
       <r>   -5.7345    1.0000 </r>
       <r>   -5.7266    1.0000 </r>
       <r>   -5.2561    1.0000 </r>
       <r>   -5.1628    1.0000 </r>
       <r>   -5.1043    1.0000 </r>
       <r>   -4.9674    1.0000 </r>
       <r>   -4.9470    1.0000 </r>
       <r>   -4.8843    1.0000 </r>
       <r>   -1.7570    0.0000 </r>
       <r>   -1.7262    0.0000 </r>
       <r>   -1.4904    0.0000 </r>
       <r>   -1.1559    0.0000 </r>
       <r>   -1.1309    0.0000 </r>
       <r>   -0.9822    0.0000 </r>
       <r>   -0.8824    0.0000 </r>
       <r>   -0.7357    0.0000 </r>
       <r>   -0.5369    0.0000 </r>
       <r>   -0.4690    0.0000 </r>
       <r>   -0.4055    0.0000 </r>
       <r>    0.1605    0.0000 </r>
       <r>    0.3285    0.0000 </r>
       <r>    0.4497    0.0000 </r>
       <r>    0.5371    0.0000 </r>
       <r>    0.6107    0.0000 </r>
       <r>    0.7560    0.0000 </r>
       <r>    0.7915    0.0000 </r>
       <r>    0.9955    0.0000 </r>
       <r>    1.0961    0.0000 </r>
       <r>    1.0994    0.0000 </r>
       <r>    1.3439    0.0000 </r>
       <r>    1.4222    0.0000 </r>
       <r>    1.4280    0.0000 </r>
       <r>    1.4680    0.0000 </r>
       <r>    1.5429    0.0000 </r>
       <r>    1.5640    0.0000 </r>
       <r>    1.5812    0.0000 </r>
       <r>    1.6467    0.0000 </r>
       <r>    1.7335    0.0000 </r>
       <r>    1.7507    0.0000 </r>
       <r>    1.7691    0.0000 </r>
       <r>    1.8208    0.0000 </r>
       <r>    1.9638    0.0000 </r>
      </set>
      <set comment="kpoint 3">
       <r>  -24.2271    1.0000 </r>
       <r>  -24.2042    1.0000 </r>
       <r>  -24.1904    1.0000 </r>
       <r>  -22.6666    1.0000 </r>
       <r>  -22.6490    1.0000 </r>
       <r>  -22.6304    1.0000 </r>
       <r>  -21.9529    1.0000 </r>
       <r>  -21.7318    1.0000 </r>
       <r>  -21.7143    1.0000 </r>
       <r>  -21.1153    1.0000 </r>
       <r>  -20.8053    1.0000 </r>
       <r>  -19.2479    1.0000 </r>
       <r>  -19.2310    1.0000 </r>
       <r>  -18.7515    1.0000 </r>
       <r>  -18.7411    1.0000 </r>
       <r>  -18.1343    1.0000 </r>
       <r>  -17.2850    1.0000 </r>
       <r>  -17.2784    1.0000 </r>
       <r>  -16.0498    1.0000 </r>
       <r>  -15.9932    1.0000 </r>
       <r>  -15.9761    1.0000 </r>
       <r>  -15.5301    1.0000 </r>
       <r>  -15.5185    1.0000 </r>
       <r>  -15.5003    1.0000 </r>
       <r>  -14.5056    1.0000 </r>
       <r>  -14.4975    1.0000 </r>
       <r>  -14.0739    1.0000 </r>
       <r>  -14.0604    1.0000 </r>
       <r>  -13.4151    1.0000 </r>
       <r>  -12.9782    1.0000 </r>
       <r>  -12.9509    1.0000 </r>
       <r>  -12.7917    1.0000 </r>
       <r>  -12.6419    1.0000 </r>
       <r>  -12.1750    1.0000 </r>
       <r>  -12.1580    1.0000 </r>
       <r>  -11.7098    1.0000 </r>
       <r>  -11.4905    1.0000 </r>
       <r>  -11.4750    1.0000 </r>
       <r>  -11.3965    1.0000 </r>
       <r>  -11.3514    1.0000 </r>
       <r>  -11.3261    1.0000 </r>
       <r>  -11.1180    1.0000 </r>
       <r>  -11.1084    1.0000 </r>
       <r>  -11.1048    1.0000 </r>
       <r>  -10.6523    1.0000 </r>
       <r>  -10.1835    1.0000 </r>
       <r>  -10.1462    1.0000 </r>
       <r>   -9.8218    1.0000 </r>
       <r>   -9.7876    1.0000 </r>
       <r>   -9.6337    1.0000 </r>
       <r>   -9.4774    1.0000 </r>
       <r>   -9.2991    1.0000 </r>
       <r>   -9.2899    1.0000 </r>
       <r>   -8.7765    1.0000 </r>
       <r>   -8.4824    1.0000 </r>
       <r>   -8.2689    1.0000 </r>
       <r>   -8.2375    1.0000 </r>
       <r>   -8.1577    1.0000 </r>
       <r>   -8.1009    1.0000 </r>
       <r>   -8.0096    1.0000 </r>
       <r>   -7.9774    1.0000 </r>
       <r>   -7.9624    1.0000 </r>
       <r>   -7.0152    1.0000 </r>
       <r>   -6.9921    1.0000 </r>
       <r>   -6.7902    1.0000 </r>
       <r>   -6.6464    1.0000 </r>
       <r>   -6.6407    1.0000 </r>
       <r>   -6.4229    1.0000 </r>
       <r>   -6.0833    1.0000 </r>
       <r>   -6.0763    1.0000 </r>
       <r>   -5.7347    1.0000 </r>
       <r>   -5.7268    1.0000 </r>
       <r>   -5.2551    1.0000 </r>
       <r>   -5.1625    1.0000 </r>
       <r>   -5.1038    1.0000 </r>
       <r>   -4.9686    1.0000 </r>
       <r>   -4.9470    1.0000 </r>
       <r>   -4.8850    1.0000 </r>
       <r>   -1.7566    0.0000 </r>
       <r>   -1.7257    0.0000 </r>
       <r>   -1.4919    0.0000 </r>
       <r>   -1.1556    0.0000 </r>
       <r>   -1.1298    0.0000 </r>
       <r>   -0.9816    0.0000 </r>
       <r>   -0.8819    0.0000 </r>
       <r>   -0.7359    0.0000 </r>
       <r>   -0.5370    0.0000 </r>
       <r>   -0.4696    0.0000 </r>
       <r>   -0.4065    0.0000 </r>
       <r>    0.1602    0.0000 </r>
       <r>    0.3268    0.0000 </r>
       <r>    0.4466    0.0000 </r>
       <r>    0.5425    0.0000 </r>
       <r>    0.6116    0.0000 </r>
       <r>    0.7544    0.0000 </r>
       <r>    0.7936    0.0000 </r>
       <r>    0.9958    0.0000 </r>
       <r>    1.0922    0.0000 </r>
       <r>    1.0994    0.0000 </r>
       <r>    1.3479    0.0000 </r>
       <r>    1.4111    0.0000 </r>
       <r>    1.4315    0.0000 </r>
       <r>    1.4691    0.0000 </r>
       <r>    1.5282    0.0000 </r>
       <r>    1.5594    0.0000 </r>
       <r>    1.5937    0.0000 </r>
       <r>    1.6514    0.0000 </r>
       <r>    1.7266    0.0000 </r>
       <r>    1.7580    0.0000 </r>
       <r>    1.7803    0.0000 </r>
       <r>    1.8312    0.0000 </r>
       <r>    1.9531    0.0000 </r>
      </set>
      <set comment="kpoint 4">
       <r>  -24.2271    1.0000 </r>
       <r>  -24.2042    1.0000 </r>
       <r>  -24.1905    1.0000 </r>
       <r>  -22.6666    1.0000 </r>
       <r>  -22.6490    1.0000 </r>
       <r>  -22.6305    1.0000 </r>
       <r>  -21.9515    1.0000 </r>
       <r>  -21.7330    1.0000 </r>
       <r>  -21.7155    1.0000 </r>
       <r>  -21.1133    1.0000 </r>
       <r>  -20.8062    1.0000 </r>
       <r>  -19.2471    1.0000 </r>
       <r>  -19.2298    1.0000 </r>
       <r>  -18.7579    1.0000 </r>
       <r>  -18.7424    1.0000 </r>
       <r>  -18.1242    1.0000 </r>
       <r>  -17.2897    1.0000 </r>
       <r>  -17.2794    1.0000 </r>
       <r>  -16.0496    1.0000 </r>
       <r>  -15.9932    1.0000 </r>
       <r>  -15.9758    1.0000 </r>
       <r>  -15.5300    1.0000 </r>
       <r>  -15.5186    1.0000 </r>
       <r>  -15.5004    1.0000 </r>
       <r>  -14.5044    1.0000 </r>
       <r>  -14.4943    1.0000 </r>
       <r>  -14.0761    1.0000 </r>
       <r>  -14.0610    1.0000 </r>
       <r>  -13.4134    1.0000 </r>
       <r>  -12.9824    1.0000 </r>
       <r>  -12.9516    1.0000 </r>
       <r>  -12.7910    1.0000 </r>
       <r>  -12.6423    1.0000 </r>
       <r>  -12.1738    1.0000 </r>
       <r>  -12.1580    1.0000 </r>
       <r>  -11.7095    1.0000 </r>
       <r>  -11.4901    1.0000 </r>
       <r>  -11.4744    1.0000 </r>
       <r>  -11.3962    1.0000 </r>
       <r>  -11.3516    1.0000 </r>
       <r>  -11.3262    1.0000 </r>
       <r>  -11.1217    1.0000 </r>
       <r>  -11.1083    1.0000 </r>
       <r>  -11.1040    1.0000 </r>
       <r>  -10.6479    1.0000 </r>
       <r>  -10.1818    1.0000 </r>
       <r>  -10.1428    1.0000 </r>
       <r>   -9.8258    1.0000 </r>
       <r>   -9.7897    1.0000 </r>
       <r>   -9.6370    1.0000 </r>
       <r>   -9.4745    1.0000 </r>
       <r>   -9.2993    1.0000 </r>
       <r>   -9.2905    1.0000 </r>
       <r>   -8.7771    1.0000 </r>
       <r>   -8.4827    1.0000 </r>
       <r>   -8.2688    1.0000 </r>
       <r>   -8.2388    1.0000 </r>
       <r>   -8.1577    1.0000 </r>
       <r>   -8.0990    1.0000 </r>
       <r>   -8.0107    1.0000 </r>
       <r>   -7.9787    1.0000 </r>
       <r>   -7.9596    1.0000 </r>
       <r>   -7.0144    1.0000 </r>
       <r>   -6.9911    1.0000 </r>
       <r>   -6.7917    1.0000 </r>
       <r>   -6.6462    1.0000 </r>
       <r>   -6.6402    1.0000 </r>
       <r>   -6.4252    1.0000 </r>
       <r>   -6.0837    1.0000 </r>
       <r>   -6.0737    1.0000 </r>
       <r>   -5.7352    1.0000 </r>
       <r>   -5.7270    1.0000 </r>
       <r>   -5.2534    1.0000 </r>
       <r>   -5.1620    1.0000 </r>
       <r>   -5.1031    1.0000 </r>
       <r>   -4.9705    1.0000 </r>
       <r>   -4.9472    1.0000 </r>
       <r>   -4.8863    1.0000 </r>
       <r>   -1.7560    0.0000 </r>
       <r>   -1.7249    0.0000 </r>
       <r>   -1.4943    0.0000 </r>
       <r>   -1.1552    0.0000 </r>
       <r>   -1.1280    0.0000 </r>
       <r>   -0.9807    0.0000 </r>
       <r>   -0.8810    0.0000 </r>
       <r>   -0.7362    0.0000 </r>
       <r>   -0.5371    0.0000 </r>
       <r>   -0.4706    0.0000 </r>
       <r>   -0.4081    0.0000 </r>
       <r>    0.1595    0.0000 </r>
       <r>    0.3242    0.0000 </r>
       <r>    0.4422    0.0000 </r>
       <r>    0.5504    0.0000 </r>
       <r>    0.6130    0.0000 </r>
       <r>    0.7521    0.0000 </r>
       <r>    0.7969    0.0000 </r>
       <r>    0.9952    0.0000 </r>
       <r>    1.0875    0.0000 </r>
       <r>    1.0997    0.0000 </r>
       <r>    1.3519    0.0000 </r>
       <r>    1.3960    0.0000 </r>
       <r>    1.4379    0.0000 </r>
       <r>    1.4665    0.0000 </r>
       <r>    1.5159    0.0000 </r>
       <r>    1.5510    0.0000 </r>
       <r>    1.6090    0.0000 </r>
       <r>    1.6546    0.0000 </r>
       <r>    1.7262    0.0000 </r>
       <r>    1.7688    0.0000 </r>
       <r>    1.7900    0.0000 </r>
       <r>    1.8458    0.0000 </r>
       <r>    1.9434    0.0000 </r>
      </set>
      <set comment="kpoint 5">
       <r>  -24.2270    1.0000 </r>
       <r>  -24.2042    1.0000 </r>
       <r>  -24.1905    1.0000 </r>
       <r>  -22.6665    1.0000 </r>
       <r>  -22.6490    1.0000 </r>
       <r>  -22.6305    1.0000 </r>
       <r>  -21.9497    1.0000 </r>
       <r>  -21.7348    1.0000 </r>
       <r>  -21.7169    1.0000 </r>
       <r>  -21.1106    1.0000 </r>
       <r>  -20.8074    1.0000 </r>
       <r>  -19.2462    1.0000 </r>
       <r>  -19.2279    1.0000 </r>
       <r>  -18.7677    1.0000 </r>
       <r>  -18.7430    1.0000 </r>
       <r>  -18.1105    1.0000 </r>
       <r>  -17.2971    1.0000 </r>
       <r>  -17.2798    1.0000 </r>
       <r>  -16.0493    1.0000 </r>
       <r>  -15.9932    1.0000 </r>
       <r>  -15.9756    1.0000 </r>
       <r>  -15.5300    1.0000 </r>
       <r>  -15.5188    1.0000 </r>
       <r>  -15.5005    1.0000 </r>
       <r>  -14.5034    1.0000 </r>
       <r>  -14.4894    1.0000 </r>
       <r>  -14.0794    1.0000 </r>
       <r>  -14.0617    1.0000 </r>
       <r>  -13.4110    1.0000 </r>
       <r>  -12.9883    1.0000 </r>
       <r>  -12.9524    1.0000 </r>
       <r>  -12.7900    1.0000 </r>
       <r>  -12.6429    1.0000 </r>
       <r>  -12.1722    1.0000 </r>
       <r>  -12.1578    1.0000 </r>
       <r>  -11.7092    1.0000 </r>
       <r>  -11.4897    1.0000 </r>
       <r>  -11.4735    1.0000 </r>
       <r>  -11.3958    1.0000 </r>
       <r>  -11.3519    1.0000 </r>
       <r>  -11.3264    1.0000 </r>
       <r>  -11.1260    1.0000 </r>
       <r>  -11.1092    1.0000 </r>
       <r>  -11.1030    1.0000 </r>
       <r>  -10.6418    1.0000 </r>
       <r>  -10.1797    1.0000 </r>
       <r>  -10.1377    1.0000 </r>
       <r>   -9.8316    1.0000 </r>
       <r>   -9.7921    1.0000 </r>
       <r>   -9.6416    1.0000 </r>
       <r>   -9.4708    1.0000 </r>
       <r>   -9.2998    1.0000 </r>
       <r>   -9.2914    1.0000 </r>
       <r>   -8.7780    1.0000 </r>
       <r>   -8.4831    1.0000 </r>
       <r>   -8.2686    1.0000 </r>
       <r>   -8.2406    1.0000 </r>
       <r>   -8.1575    1.0000 </r>
       <r>   -8.0966    1.0000 </r>
       <r>   -8.0120    1.0000 </r>
       <r>   -7.9798    1.0000 </r>
       <r>   -7.9564    1.0000 </r>
       <r>   -7.0133    1.0000 </r>
       <r>   -6.9896    1.0000 </r>
       <r>   -6.7937    1.0000 </r>
       <r>   -6.6460    1.0000 </r>
       <r>   -6.6394    1.0000 </r>
       <r>   -6.4282    1.0000 </r>
       <r>   -6.0840    1.0000 </r>
       <r>   -6.0702    1.0000 </r>
       <r>   -5.7361    1.0000 </r>
       <r>   -5.7273    1.0000 </r>
       <r>   -5.2510    1.0000 </r>
       <r>   -5.1614    1.0000 </r>
       <r>   -5.1022    1.0000 </r>
       <r>   -4.9731    1.0000 </r>
       <r>   -4.9475    1.0000 </r>
       <r>   -4.8880    1.0000 </r>
       <r>   -1.7552    0.0000 </r>
       <r>   -1.7236    0.0000 </r>
       <r>   -1.4975    0.0000 </r>
       <r>   -1.1546    0.0000 </r>
       <r>   -1.1256    0.0000 </r>
       <r>   -0.9795    0.0000 </r>
       <r>   -0.8799    0.0000 </r>
       <r>   -0.7366    0.0000 </r>
       <r>   -0.5372    0.0000 </r>
       <r>   -0.4719    0.0000 </r>
       <r>   -0.4103    0.0000 </r>
       <r>    0.1584    0.0000 </r>
       <r>    0.3212    0.0000 </r>
       <r>    0.4371    0.0000 </r>
       <r>    0.5597    0.0000 </r>
       <r>    0.6152    0.0000 </r>
       <r>    0.7494    0.0000 </r>
       <r>    0.8011    0.0000 </r>
       <r>    0.9922    0.0000 </r>
       <r>    1.0845    0.0000 </r>
       <r>    1.1008    0.0000 </r>
       <r>    1.3511    0.0000 </r>
       <r>    1.3824    0.0000 </r>
       <r>    1.4430    0.0000 </r>
       <r>    1.4588    0.0000 </r>
       <r>    1.5132    0.0000 </r>
       <r>    1.5416    0.0000 </r>
       <r>    1.6199    0.0000 </r>
       <r>    1.6600    0.0000 </r>
       <r>    1.7313    0.0000 </r>
       <r>    1.7810    0.0000 </r>
       <r>    1.7998    0.0000 </r>
       <r>    1.8567    0.0000 </r>
       <r>    1.9469    0.0000 </r>
      </set>
      <set comment="kpoint 6">
       <r>  -24.2269    1.0000 </r>
       <r>  -24.2042    1.0000 </r>
       <r>  -24.1906    1.0000 </r>
       <r>  -22.6665    1.0000 </r>
       <r>  -22.6491    1.0000 </r>
       <r>  -22.6305    1.0000 </r>
       <r>  -21.9474    1.0000 </r>
       <r>  -21.7374    1.0000 </r>
       <r>  -21.7182    1.0000 </r>
       <r>  -21.1073    1.0000 </r>
       <r>  -20.8089    1.0000 </r>
       <r>  -19.2453    1.0000 </r>
       <r>  -19.2252    1.0000 </r>
       <r>  -18.7799    1.0000 </r>
       <r>  -18.7434    1.0000 </r>
       <r>  -18.0937    1.0000 </r>
       <r>  -17.3068    1.0000 </r>
       <r>  -17.2800    1.0000 </r>
       <r>  -16.0490    1.0000 </r>
       <r>  -15.9932    1.0000 </r>
       <r>  -15.9752    1.0000 </r>
       <r>  -15.5299    1.0000 </r>
       <r>  -15.5191    1.0000 </r>
       <r>  -15.5006    1.0000 </r>
       <r>  -14.5025    1.0000 </r>
       <r>  -14.4827    1.0000 </r>
       <r>  -14.0838    1.0000 </r>
       <r>  -14.0623    1.0000 </r>
       <r>  -13.4079    1.0000 </r>
       <r>  -12.9959    1.0000 </r>
       <r>  -12.9531    1.0000 </r>
       <r>  -12.7889    1.0000 </r>
       <r>  -12.6435    1.0000 </r>
       <r>  -12.1703    1.0000 </r>
       <r>  -12.1576    1.0000 </r>
       <r>  -11.7088    1.0000 </r>
       <r>  -11.4891    1.0000 </r>
       <r>  -11.4723    1.0000 </r>
       <r>  -11.3953    1.0000 </r>
       <r>  -11.3523    1.0000 </r>
       <r>  -11.3265    1.0000 </r>
       <r>  -11.1307    1.0000 </r>
       <r>  -11.1104    1.0000 </r>
       <r>  -11.1020    1.0000 </r>
       <r>  -10.6342    1.0000 </r>
       <r>  -10.1773    1.0000 </r>
       <r>  -10.1309    1.0000 </r>
       <r>   -9.8395    1.0000 </r>
       <r>   -9.7946    1.0000 </r>
       <r>   -9.6474    1.0000 </r>
       <r>   -9.4662    1.0000 </r>
       <r>   -9.3005    1.0000 </r>
       <r>   -9.2924    1.0000 </r>
       <r>   -8.7790    1.0000 </r>
       <r>   -8.4837    1.0000 </r>
       <r>   -8.2684    1.0000 </r>
       <r>   -8.2427    1.0000 </r>
       <r>   -8.1573    1.0000 </r>
       <r>   -8.0938    1.0000 </r>
       <r>   -8.0136    1.0000 </r>
       <r>   -7.9807    1.0000 </r>
       <r>   -7.9530    1.0000 </r>
       <r>   -7.0120    1.0000 </r>
       <r>   -6.9876    1.0000 </r>
       <r>   -6.7962    1.0000 </r>
       <r>   -6.6456    1.0000 </r>
       <r>   -6.6385    1.0000 </r>
       <r>   -6.4320    1.0000 </r>
       <r>   -6.0844    1.0000 </r>
       <r>   -6.0660    1.0000 </r>
       <r>   -5.7374    1.0000 </r>
       <r>   -5.7273    1.0000 </r>
       <r>   -5.2481    1.0000 </r>
       <r>   -5.1605    1.0000 </r>
       <r>   -5.1010    1.0000 </r>
       <r>   -4.9763    1.0000 </r>
       <r>   -4.9480    1.0000 </r>
       <r>   -4.8901    1.0000 </r>
       <r>   -1.7544    0.0000 </r>
       <r>   -1.7219    0.0000 </r>
       <r>   -1.5016    0.0000 </r>
       <r>   -1.1538    0.0000 </r>
       <r>   -1.1227    0.0000 </r>
       <r>   -0.9780    0.0000 </r>
       <r>   -0.8783    0.0000 </r>
       <r>   -0.7372    0.0000 </r>
       <r>   -0.5374    0.0000 </r>
       <r>   -0.4736    0.0000 </r>
       <r>   -0.4129    0.0000 </r>
       <r>    0.1568    0.0000 </r>
       <r>    0.3182    0.0000 </r>
       <r>    0.4316    0.0000 </r>
       <r>    0.5690    0.0000 </r>
       <r>    0.6183    0.0000 </r>
       <r>    0.7470    0.0000 </r>
       <r>    0.8061    0.0000 </r>
       <r>    0.9859    0.0000 </r>
       <r>    1.0847    0.0000 </r>
       <r>    1.1031    0.0000 </r>
       <r>    1.3397    0.0000 </r>
       <r>    1.3751    0.0000 </r>
       <r>    1.4316    0.0000 </r>
       <r>    1.4625    0.0000 </r>
       <r>    1.5192    0.0000 </r>
       <r>    1.5335    0.0000 </r>
       <r>    1.6202    0.0000 </r>
       <r>    1.6743    0.0000 </r>
       <r>    1.7383    0.0000 </r>
       <r>    1.7918    0.0000 </r>
       <r>    1.8131    0.0000 </r>
       <r>    1.8576    0.0000 </r>
       <r>    1.9709    0.0000 </r>
      </set>
      <set comment="kpoint 7">
       <r>  -24.2268    1.0000 </r>
       <r>  -24.2042    1.0000 </r>
       <r>  -24.1907    1.0000 </r>
       <r>  -22.6665    1.0000 </r>
       <r>  -22.6491    1.0000 </r>
       <r>  -22.6305    1.0000 </r>
       <r>  -21.9445    1.0000 </r>
       <r>  -21.7410    1.0000 </r>
       <r>  -21.7193    1.0000 </r>
       <r>  -21.1034    1.0000 </r>
       <r>  -20.8107    1.0000 </r>
       <r>  -19.2445    1.0000 </r>
       <r>  -19.2217    1.0000 </r>
       <r>  -18.7940    1.0000 </r>
       <r>  -18.7435    1.0000 </r>
       <r>  -18.0743    1.0000 </r>
       <r>  -17.3186    1.0000 </r>
       <r>  -17.2800    1.0000 </r>
       <r>  -16.0486    1.0000 </r>
       <r>  -15.9932    1.0000 </r>
       <r>  -15.9748    1.0000 </r>
       <r>  -15.5298    1.0000 </r>
       <r>  -15.5194    1.0000 </r>
       <r>  -15.5008    1.0000 </r>
       <r>  -14.5018    1.0000 </r>
       <r>  -14.4745    1.0000 </r>
       <r>  -14.0892    1.0000 </r>
       <r>  -14.0629    1.0000 </r>
       <r>  -13.4043    1.0000 </r>
       <r>  -13.0050    1.0000 </r>
       <r>  -12.9536    1.0000 </r>
       <r>  -12.7877    1.0000 </r>
       <r>  -12.6442    1.0000 </r>
       <r>  -12.1684    1.0000 </r>
       <r>  -12.1571    1.0000 </r>
       <r>  -11.7083    1.0000 </r>
       <r>  -11.4886    1.0000 </r>
       <r>  -11.4709    1.0000 </r>
       <r>  -11.3947    1.0000 </r>
       <r>  -11.3528    1.0000 </r>
       <r>  -11.3267    1.0000 </r>
       <r>  -11.1358    1.0000 </r>
       <r>  -11.1119    1.0000 </r>
       <r>  -11.1011    1.0000 </r>
       <r>  -10.6253    1.0000 </r>
       <r>  -10.1748    1.0000 </r>
       <r>  -10.1224    1.0000 </r>
       <r>   -9.8492    1.0000 </r>
       <r>   -9.7972    1.0000 </r>
       <r>   -9.6542    1.0000 </r>
       <r>   -9.4609    1.0000 </r>
       <r>   -9.3016    1.0000 </r>
       <r>   -9.2933    1.0000 </r>
       <r>   -8.7803    1.0000 </r>
       <r>   -8.4843    1.0000 </r>
       <r>   -8.2681    1.0000 </r>
       <r>   -8.2450    1.0000 </r>
       <r>   -8.1570    1.0000 </r>
       <r>   -8.0907    1.0000 </r>
       <r>   -8.0152    1.0000 </r>
       <r>   -7.9814    1.0000 </r>
       <r>   -7.9496    1.0000 </r>
       <r>   -7.0106    1.0000 </r>
       <r>   -6.9851    1.0000 </r>
       <r>   -6.7992    1.0000 </r>
       <r>   -6.6453    1.0000 </r>
       <r>   -6.6373    1.0000 </r>
       <r>   -6.4364    1.0000 </r>
       <r>   -6.0848    1.0000 </r>
       <r>   -6.0612    1.0000 </r>
       <r>   -5.7391    1.0000 </r>
       <r>   -5.7273    1.0000 </r>
       <r>   -5.2446    1.0000 </r>
       <r>   -5.1595    1.0000 </r>
       <r>   -5.0995    1.0000 </r>
       <r>   -4.9800    1.0000 </r>
       <r>   -4.9487    1.0000 </r>
       <r>   -4.8925    1.0000 </r>
       <r>   -1.7536    0.0000 </r>
       <r>   -1.7196    0.0000 </r>
       <r>   -1.5064    0.0000 </r>
       <r>   -1.1529    0.0000 </r>
       <r>   -1.1192    0.0000 </r>
       <r>   -0.9764    0.0000 </r>
       <r>   -0.8763    0.0000 </r>
       <r>   -0.7379    0.0000 </r>
       <r>   -0.5377    0.0000 </r>
       <r>   -0.4754    0.0000 </r>
       <r>   -0.4161    0.0000 </r>
       <r>    0.1546    0.0000 </r>
       <r>    0.3157    0.0000 </r>
       <r>    0.4262    0.0000 </r>
       <r>    0.5767    0.0000 </r>
       <r>    0.6231    0.0000 </r>
       <r>    0.7454    0.0000 </r>
       <r>    0.8113    0.0000 </r>
       <r>    0.9766    0.0000 </r>
       <r>    1.0882    0.0000 </r>
       <r>    1.1074    0.0000 </r>
       <r>    1.3206    0.0000 </r>
       <r>    1.3704    0.0000 </r>
       <r>    1.4130    0.0000 </r>
       <r>    1.4719    0.0000 </r>
       <r>    1.5220    0.0000 </r>
       <r>    1.5365    0.0000 </r>
       <r>    1.6149    0.0000 </r>
       <r>    1.6936    0.0000 </r>
       <r>    1.7445    0.0000 </r>
       <r>    1.7985    0.0000 </r>
       <r>    1.8303    0.0000 </r>
       <r>    1.8520    0.0000 </r>
       <r>    1.9792    0.0000 </r>
      </set>
      <set comment="kpoint 8">
       <r>  -24.2267    1.0000 </r>
       <r>  -24.2043    1.0000 </r>
       <r>  -24.1908    1.0000 </r>
       <r>  -22.6665    1.0000 </r>
       <r>  -22.6491    1.0000 </r>
       <r>  -22.6305    1.0000 </r>
       <r>  -21.9412    1.0000 </r>
       <r>  -21.7455    1.0000 </r>
       <r>  -21.7202    1.0000 </r>
       <r>  -21.0990    1.0000 </r>
       <r>  -20.8127    1.0000 </r>
       <r>  -19.2438    1.0000 </r>
       <r>  -19.2174    1.0000 </r>
       <r>  -18.8096    1.0000 </r>
       <r>  -18.7436    1.0000 </r>
       <r>  -18.0527    1.0000 </r>
       <r>  -17.3322    1.0000 </r>
       <r>  -17.2801    1.0000 </r>
       <r>  -16.0482    1.0000 </r>
       <r>  -15.9931    1.0000 </r>
       <r>  -15.9743    1.0000 </r>
       <r>  -15.5296    1.0000 </r>
       <r>  -15.5197    1.0000 </r>
       <r>  -15.5009    1.0000 </r>
       <r>  -14.5010    1.0000 </r>
       <r>  -14.4649    1.0000 </r>
       <r>  -14.0956    1.0000 </r>
       <r>  -14.0635    1.0000 </r>
       <r>  -13.4000    1.0000 </r>
       <r>  -13.0153    1.0000 </r>
       <r>  -12.9541    1.0000 </r>
       <r>  -12.7865    1.0000 </r>
       <r>  -12.6449    1.0000 </r>
       <r>  -12.1666    1.0000 </r>
       <r>  -12.1562    1.0000 </r>
       <r>  -11.7078    1.0000 </r>
       <r>  -11.4881    1.0000 </r>
       <r>  -11.4691    1.0000 </r>
       <r>  -11.3940    1.0000 </r>
       <r>  -11.3534    1.0000 </r>
       <r>  -11.3269    1.0000 </r>
       <r>  -11.1412    1.0000 </r>
       <r>  -11.1136    1.0000 </r>
       <r>  -11.1004    1.0000 </r>
       <r>  -10.6153    1.0000 </r>
       <r>  -10.1722    1.0000 </r>
       <r>  -10.1122    1.0000 </r>
       <r>   -9.8605    1.0000 </r>
       <r>   -9.8001    1.0000 </r>
       <r>   -9.6619    1.0000 </r>
       <r>   -9.4551    1.0000 </r>
       <r>   -9.3032    1.0000 </r>
       <r>   -9.2941    1.0000 </r>
       <r>   -8.7817    1.0000 </r>
       <r>   -8.4850    1.0000 </r>
       <r>   -8.2678    1.0000 </r>
       <r>   -8.2474    1.0000 </r>
       <r>   -8.1565    1.0000 </r>
       <r>   -8.0876    1.0000 </r>
       <r>   -8.0168    1.0000 </r>
       <r>   -7.9818    1.0000 </r>
       <r>   -7.9462    1.0000 </r>
       <r>   -7.0092    1.0000 </r>
       <r>   -6.9820    1.0000 </r>
       <r>   -6.8027    1.0000 </r>
       <r>   -6.6449    1.0000 </r>
       <r>   -6.6360    1.0000 </r>
       <r>   -6.4413    1.0000 </r>
       <r>   -6.0852    1.0000 </r>
       <r>   -6.0558    1.0000 </r>
       <r>   -5.7411    1.0000 </r>
       <r>   -5.7270    1.0000 </r>
       <r>   -5.2407    1.0000 </r>
       <r>   -5.1582    1.0000 </r>
       <r>   -5.0979    1.0000 </r>
       <r>   -4.9841    1.0000 </r>
       <r>   -4.9497    1.0000 </r>
       <r>   -4.8952    1.0000 </r>
       <r>   -1.7529    0.0000 </r>
       <r>   -1.7167    0.0000 </r>
       <r>   -1.5119    0.0000 </r>
       <r>   -1.1519    0.0000 </r>
       <r>   -1.1155    0.0000 </r>
       <r>   -0.9747    0.0000 </r>
       <r>   -0.8740    0.0000 </r>
       <r>   -0.7388    0.0000 </r>
       <r>   -0.5380    0.0000 </r>
       <r>   -0.4775    0.0000 </r>
       <r>   -0.4197    0.0000 </r>
       <r>    0.1519    0.0000 </r>
       <r>    0.3140    0.0000 </r>
       <r>    0.4209    0.0000 </r>
       <r>    0.5812    0.0000 </r>
       <r>    0.6302    0.0000 </r>
       <r>    0.7449    0.0000 </r>
       <r>    0.8164    0.0000 </r>
       <r>    0.9658    0.0000 </r>
       <r>    1.0940    0.0000 </r>
       <r>    1.1141    0.0000 </r>
       <r>    1.2988    0.0000 </r>
       <r>    1.3627    0.0000 </r>
       <r>    1.3963    0.0000 </r>
       <r>    1.4777    0.0000 </r>
       <r>    1.5225    0.0000 </r>
       <r>    1.5492    0.0000 </r>
       <r>    1.6101    0.0000 </r>
       <r>    1.7125    0.0000 </r>
       <r>    1.7486    0.0000 </r>
       <r>    1.8003    0.0000 </r>
       <r>    1.8401    0.0000 </r>
       <r>    1.8565    0.0000 </r>
       <r>    1.9797    0.0000 </r>
      </set>
      <set comment="kpoint 9">
       <r>  -24.2266    1.0000 </r>
       <r>  -24.2043    1.0000 </r>
       <r>  -24.1909    1.0000 </r>
       <r>  -22.6665    1.0000 </r>
       <r>  -22.6491    1.0000 </r>
       <r>  -22.6306    1.0000 </r>
       <r>  -21.9375    1.0000 </r>
       <r>  -21.7507    1.0000 </r>
       <r>  -21.7209    1.0000 </r>
       <r>  -21.0942    1.0000 </r>
       <r>  -20.8150    1.0000 </r>
       <r>  -19.2432    1.0000 </r>
       <r>  -19.2122    1.0000 </r>
       <r>  -18.8261    1.0000 </r>
       <r>  -18.7437    1.0000 </r>
       <r>  -18.0293    1.0000 </r>
       <r>  -17.3476    1.0000 </r>
       <r>  -17.2801    1.0000 </r>
       <r>  -16.0477    1.0000 </r>
       <r>  -15.9931    1.0000 </r>
       <r>  -15.9738    1.0000 </r>
       <r>  -15.5295    1.0000 </r>
       <r>  -15.5200    1.0000 </r>
       <r>  -15.5011    1.0000 </r>
       <r>  -14.5003    1.0000 </r>
       <r>  -14.4541    1.0000 </r>
       <r>  -14.1031    1.0000 </r>
       <r>  -14.0640    1.0000 </r>
       <r>  -13.3952    1.0000 </r>
       <r>  -13.0266    1.0000 </r>
       <r>  -12.9544    1.0000 </r>
       <r>  -12.7852    1.0000 </r>
       <r>  -12.6457    1.0000 </r>
       <r>  -12.1652    1.0000 </r>
       <r>  -12.1548    1.0000 </r>
       <r>  -11.7072    1.0000 </r>
       <r>  -11.4877    1.0000 </r>
       <r>  -11.4671    1.0000 </r>
       <r>  -11.3932    1.0000 </r>
       <r>  -11.3541    1.0000 </r>
       <r>  -11.3272    1.0000 </r>
       <r>  -11.1469    1.0000 </r>
       <r>  -11.1154    1.0000 </r>
       <r>  -11.0998    1.0000 </r>
       <r>  -10.6043    1.0000 </r>
       <r>  -10.1693    1.0000 </r>
       <r>  -10.1006    1.0000 </r>
       <r>   -9.8732    1.0000 </r>
       <r>   -9.8032    1.0000 </r>
       <r>   -9.6703    1.0000 </r>
       <r>   -9.4489    1.0000 </r>
       <r>   -9.3052    1.0000 </r>
       <r>   -9.2947    1.0000 </r>
       <r>   -8.7831    1.0000 </r>
       <r>   -8.4858    1.0000 </r>
       <r>   -8.2675    1.0000 </r>
       <r>   -8.2499    1.0000 </r>
       <r>   -8.1560    1.0000 </r>
       <r>   -8.0846    1.0000 </r>
       <r>   -8.0183    1.0000 </r>
       <r>   -7.9821    1.0000 </r>
       <r>   -7.9428    1.0000 </r>
       <r>   -7.0078    1.0000 </r>
       <r>   -6.9784    1.0000 </r>
       <r>   -6.8066    1.0000 </r>
       <r>   -6.6445    1.0000 </r>
       <r>   -6.6345    1.0000 </r>
       <r>   -6.4464    1.0000 </r>
       <r>   -6.0857    1.0000 </r>
       <r>   -6.0501    1.0000 </r>
       <r>   -5.7435    1.0000 </r>
       <r>   -5.7267    1.0000 </r>
       <r>   -5.2364    1.0000 </r>
       <r>   -5.1566    1.0000 </r>
       <r>   -5.0962    1.0000 </r>
       <r>   -4.9886    1.0000 </r>
       <r>   -4.9511    1.0000 </r>
       <r>   -4.8980    1.0000 </r>
       <r>   -1.7523    0.0000 </r>
       <r>   -1.7132    0.0000 </r>
       <r>   -1.5179    0.0000 </r>
       <r>   -1.1508    0.0000 </r>
       <r>   -1.1114    0.0000 </r>
       <r>   -0.9729    0.0000 </r>
       <r>   -0.8712    0.0000 </r>
       <r>   -0.7400    0.0000 </r>
       <r>   -0.5384    0.0000 </r>
       <r>   -0.4796    0.0000 </r>
       <r>   -0.4235    0.0000 </r>
       <r>    0.1484    0.0000 </r>
       <r>    0.3133    0.0000 </r>
       <r>    0.4160    0.0000 </r>
       <r>    0.5822    0.0000 </r>
       <r>    0.6395    0.0000 </r>
       <r>    0.7457    0.0000 </r>
       <r>    0.8211    0.0000 </r>
       <r>    0.9549    0.0000 </r>
       <r>    1.1010    0.0000 </r>
       <r>    1.1231    0.0000 </r>
       <r>    1.2763    0.0000 </r>
       <r>    1.3507    0.0000 </r>
       <r>    1.3833    0.0000 </r>
       <r>    1.4759    0.0000 </r>
       <r>    1.5311    0.0000 </r>
       <r>    1.5587    0.0000 </r>
       <r>    1.6113    0.0000 </r>
       <r>    1.7271    0.0000 </r>
       <r>    1.7494    0.0000 </r>
       <r>    1.7985    0.0000 </r>
       <r>    1.8367    0.0000 </r>
       <r>    1.8797    0.0000 </r>
       <r>    1.9804    0.0000 </r>
      </set>
      <set comment="kpoint 10">
       <r>  -24.2265    1.0000 </r>
       <r>  -24.2043    1.0000 </r>
       <r>  -24.1910    1.0000 </r>
       <r>  -22.6664    1.0000 </r>
       <r>  -22.6492    1.0000 </r>
       <r>  -22.6306    1.0000 </r>
       <r>  -21.9334    1.0000 </r>
       <r>  -21.7566    1.0000 </r>
       <r>  -21.7214    1.0000 </r>
       <r>  -21.0893    1.0000 </r>
       <r>  -20.8174    1.0000 </r>
       <r>  -19.2428    1.0000 </r>
       <r>  -19.2062    1.0000 </r>
       <r>  -18.8431    1.0000 </r>
       <r>  -18.7438    1.0000 </r>
       <r>  -18.0046    1.0000 </r>
       <r>  -17.3645    1.0000 </r>
       <r>  -17.2801    1.0000 </r>
       <r>  -16.0473    1.0000 </r>
       <r>  -15.9931    1.0000 </r>
       <r>  -15.9733    1.0000 </r>
       <r>  -15.5293    1.0000 </r>
       <r>  -15.5204    1.0000 </r>
       <r>  -15.5013    1.0000 </r>
       <r>  -14.4996    1.0000 </r>
       <r>  -14.4423    1.0000 </r>
       <r>  -14.1114    1.0000 </r>
       <r>  -14.0645    1.0000 </r>
       <r>  -13.3899    1.0000 </r>
[...]
       <r>   -0.8825    0.0000 </r>
       <r>   -0.7357    0.0000 </r>
       <r>   -0.5369    0.0000 </r>
       <r>   -0.4688    0.0000 </r>
       <r>   -0.4052    0.0000 </r>
       <r>    0.1607    0.0000 </r>
       <r>    0.3291    0.0000 </r>
       <r>    0.4508    0.0000 </r>
       <r>    0.5351    0.0000 </r>
       <r>    0.6104    0.0000 </r>
       <r>    0.7565    0.0000 </r>
       <r>    0.7908    0.0000 </r>
       <r>    0.9953    0.0000 </r>
       <r>    1.0975    0.0000 </r>
       <r>    1.0996    0.0000 </r>
       <r>    1.3423    0.0000 </r>
       <r>    1.4242    0.0000 </r>
       <r>    1.4293    0.0000 </r>
       <r>    1.4671    0.0000 </r>
       <r>    1.5517    0.0000 </r>
       <r>    1.5620    0.0000 </r>
       <r>    1.5775    0.0000 </r>
       <r>    1.6442    0.0000 </r>
       <r>    1.7397    0.0000 </r>
       <r>    1.7480    0.0000 </r>
       <r>    1.7616    0.0000 </r>
       <r>    1.8174    0.0000 </r>
       <r>    1.9734    0.0000 </r>
      </set>
     </set>
    </set>
   </array>
  </eigenvalues>
  <separator name="orbital magnetization" >
   <v name="MAGDIPOLOUT">      0.00000000      0.00000000      0.00000000</v>
  </separator>
  <dos>
   <i name="efermi">     -4.79496544 </i>
   <total>
    <array>
     <dimension dim="1">gridpoints</dimension>
     <dimension dim="2">spin</dimension>
     <field>energy</field>
     <field>total</field>
     <field>integrated</field>
     <set>
      <set comment="spin 1">
       <r>   -25.5415     0.0000     0.0000 </r>
       <r>   -25.4451     0.0000     0.0000 </r>
       <r>   -25.3487     0.0000     0.0000 </r>
       <r>   -25.2523     0.0000     0.0000 </r>
       <r>   -25.1559     0.0000     0.0000 </r>
       <r>   -25.0595     0.0000     0.0000 </r>
       <r>   -24.9632     0.0000     0.0000 </r>
       <r>   -24.8668     0.0000     0.0000 </r>
       <r>   -24.7704     0.0000     0.0000 </r>
       <r>   -24.6740     0.0000     0.0000 </r>
       <r>   -24.5776     0.0000     0.0000 </r>
       <r>   -24.4812     0.0000     0.0000 </r>
       <r>   -24.3849     0.0000     0.0000 </r>
       <r>   -24.2885     0.0000     0.0000 </r>
       <r>   -24.1921    50.0205     4.8211 </r>
       <r>   -24.0957     0.0000     6.0000 </r>
       <r>   -23.9993     0.0000     6.0000 </r>
       <r>   -23.9029     0.0000     6.0000 </r>
       <r>   -23.8066     0.0000     6.0000 </r>
       <r>   -23.7102     0.0000     6.0000 </r>
       <r>   -23.6138     0.0000     6.0000 </r>
       <r>   -23.5174     0.0000     6.0000 </r>
       <r>   -23.4210     0.0000     6.0000 </r>
       <r>   -23.3246     0.0000     6.0000 </r>
       <r>   -23.2283     0.0000     6.0000 </r>
       <r>   -23.1319     0.0000     6.0000 </r>
       <r>   -23.0355     0.0000     6.0000 </r>
       <r>   -22.9391     0.0000     6.0000 </r>
       <r>   -22.8427     0.0000     6.0000 </r>
       <r>   -22.7463     0.0000     6.0000 </r>
       <r>   -22.6500    30.1755     8.9084 </r>
       <r>   -22.5536    20.6839    12.0000 </r>
       <r>   -22.4572     0.0000    12.0000 </r>
       <r>   -22.3608     0.0000    12.0000 </r>
       <r>   -22.2644     0.0000    12.0000 </r>
       <r>   -22.1680     0.0000    12.0000 </r>
       <r>   -22.0717     0.0000    12.0000 </r>
       <r>   -21.9753     0.0024    12.0002 </r>
       <r>   -21.8789    17.5936    13.6960 </r>
       <r>   -21.7825    12.4269    15.1977 </r>
       <r>   -21.6861    27.6637    18.0000 </r>
       <r>   -21.5897     0.0000    18.0000 </r>
       <r>   -21.4934     0.0000    18.0000 </r>
       <r>   -21.3970     0.0000    18.0000 </r>
       <r>   -21.3006     0.0000    18.0000 </r>
       <r>   -21.2042     0.0000    18.0000 </r>
       <r>   -21.1078     3.2247    18.3108 </r>
       <r>   -21.0114    14.8684    20.0000 </r>
       <r>   -20.9151     0.0000    20.0000 </r>
       <r>   -20.8187    14.3312    21.3813 </r>
       <r>   -20.7223     0.0000    22.0000 </r>
       <r>   -20.6259     0.0000    22.0000 </r>
       <r>   -20.5295     0.0000    22.0000 </r>
       <r>   -20.4331     0.0000    22.0000 </r>
       <r>   -20.3368     0.0000    22.0000 </r>
       <r>   -20.2404     0.0000    22.0000 </r>
       <r>   -20.1440     0.0000    22.0000 </r>
       <r>   -20.0476     0.0000    22.0000 </r>
       <r>   -19.9512     0.0000    22.0000 </r>
       <r>   -19.8548     0.0000    22.0000 </r>
       <r>   -19.7585     0.0000    22.0000 </r>
       <r>   -19.6621     0.0000    22.0000 </r>
       <r>   -19.5657     0.0000    22.0000 </r>
       <r>   -19.4693     0.0000    22.0000 </r>
       <r>   -19.3729     0.0000    22.0000 </r>
       <r>   -19.2766     0.0001    22.0000 </r>
       <r>   -19.1802    29.4075    24.8344 </r>
       <r>   -19.0838    11.0614    26.0000 </r>
       <r>   -18.9874     4.2460    26.4092 </r>
       <r>   -18.8910     6.3072    27.2420 </r>
       <r>   -18.7946     3.1059    27.5995 </r>
       <r>   -18.6983    23.8630    30.0000 </r>
       <r>   -18.6019     0.0000    30.0000 </r>
       <r>   -18.5055     0.0000    30.0000 </r>
       <r>   -18.4091     0.0000    30.0000 </r>
       <r>   -18.3127     0.0000    30.0000 </r>
       <r>   -18.2163     0.0000    30.0000 </r>
       <r>   -18.1200     2.4661    30.2377 </r>
       <r>   -18.0236     2.5694    30.5477 </r>
       <r>   -17.9272     2.1869    30.7776 </r>
       <r>   -17.8308     2.2624    31.0181 </r>
       <r>   -17.7344     6.7482    31.7171 </r>
       <r>   -17.6380     2.0717    32.0000 </r>
       <r>   -17.5417     6.0124    32.5795 </r>
       <r>   -17.4453     4.3379    33.1525 </r>
       <r>   -17.3489     2.7394    33.4641 </r>
       <r>   -17.2525    25.9318    35.9999 </r>
       <r>   -17.1561     0.0000    36.0000 </r>
       <r>   -17.0597     0.0000    36.0000 </r>
       <r>   -16.9634     0.0000    36.0000 </r>
       <r>   -16.8670     0.0000    36.0000 </r>
       <r>   -16.7706     0.0000    36.0000 </r>
       <r>   -16.6742     0.0000    36.0000 </r>
       <r>   -16.5778     0.0000    36.0000 </r>
       <r>   -16.4814     0.0000    36.0000 </r>
       <r>   -16.3851     0.0000    36.0000 </r>
       <r>   -16.2887     0.0000    36.0000 </r>
       <r>   -16.1923     0.0000    36.0000 </r>
       <r>   -16.0959     0.0000    36.0000 </r>
       <r>   -15.9995    24.5723    38.3684 </r>
       <r>   -15.9031    20.7480    42.0000 </r>
       <r>   -15.8068     0.0000    42.0000 </r>
       <r>   -15.7104     0.0000    42.0000 </r>
       <r>   -15.6140     0.0000    42.0000 </r>
       <r>   -15.5176    34.8402    45.3580 </r>
       <r>   -15.4212     7.2037    48.0000 </r>
       <r>   -15.3248     0.0000    48.0000 </r>
       <r>   -15.2285     0.0000    48.0000 </r>
       <r>   -15.1321     0.0000    48.0000 </r>
       <r>   -15.0357     0.0000    48.0000 </r>
       <r>   -14.9393     0.0000    48.0000 </r>
       <r>   -14.8429     0.0000    48.0000 </r>
       <r>   -14.7465     0.0000    48.0000 </r>
       <r>   -14.6502     0.0000    48.0000 </r>
       <r>   -14.5538     0.0000    48.0000 </r>
       <r>   -14.4574    26.1375    50.5192 </r>
       <r>   -14.3610     3.4750    50.9683 </r>
       <r>   -14.2646    10.0230    51.9996 </r>
       <r>   -14.1682    11.1121    53.0711 </r>
       <r>   -14.0719    12.9334    54.3804 </r>
       <r>   -13.9755     0.0000    56.0000 </r>
       <r>   -13.8791     0.0000    56.0000 </r>
       <r>   -13.7827     0.0000    56.0000 </r>
       <r>   -13.6863     0.0000    56.0000 </r>
       <r>   -13.5899     0.0000    56.0000 </r>
       <r>   -13.4936     0.0000    56.0000 </r>
       <r>   -13.3972     5.1328    56.4947 </r>
       <r>   -13.3008    13.4863    58.0000 </r>
       <r>   -13.2044     0.0000    58.0000 </r>
       <r>   -13.1080    10.9211    59.0526 </r>
       <r>   -13.0116     4.4699    59.5644 </r>
       <r>   -12.9153    23.8628    62.0000 </r>
       <r>   -12.8189     0.0002    62.0000 </r>
       <r>   -12.7225    20.7503    64.0000 </r>
       <r>   -12.6261    20.6912    65.9943 </r>
       <r>   -12.5297     0.0000    66.0000 </r>
       <r>   -12.4333     0.0000    66.0000 </r>
       <r>   -12.3370     0.0000    66.0000 </r>
       <r>   -12.2406     0.0000    66.0000 </r>
       <r>   -12.1442    28.9060    68.7861 </r>
       <r>   -12.0478     2.7482    70.0000 </r>
       <r>   -11.9514     0.0000    70.0000 </r>
       <r>   -11.8550     0.0000    70.0000 </r>
       <r>   -11.7587     0.0000    70.0000 </r>
       <r>   -11.6623    20.7505    72.0000 </r>
       <r>   -11.5659     0.0000    72.0000 </r>
       <r>   -11.4695    24.7343    74.3840 </r>
       <r>   -11.3731    32.6778    78.0175 </r>
       <r>   -11.2767    27.9899    82.0000 </r>
       <r>   -11.1804    10.9767    83.0580 </r>
       <r>   -11.0840    48.5621    87.9809 </r>
       <r>   -10.9876     0.0000    88.0000 </r>
       <r>   -10.8912     0.0000    88.0000 </r>
       <r>   -10.7948     0.0000    88.0000 </r>
       <r>   -10.6984     0.0000    88.0000 </r>
       <r>   -10.6021     5.7519    88.5544 </r>
       <r>   -10.5057     7.1824    89.3257 </r>
       <r>   -10.4093     3.7981    90.0000 </r>
       <r>   -10.3129     0.0000    90.0000 </r>
       <r>   -10.2165     0.0000    90.0000 </r>
       <r>   -10.1201    22.3068    92.1500 </r>
       <r>   -10.0238     8.9650    93.3642 </r>
       <r>    -9.9274     9.5823    94.5577 </r>
       <r>    -9.8310    20.9767    96.8889 </r>
       <r>    -9.7346    15.2477    98.9034 </r>
       <r>    -9.6382     6.4457    99.7880 </r>
       <r>    -9.5418     0.0000   100.0000 </r>
       <r>    -9.4455     5.7530   100.5545 </r>
       <r>    -9.3491    16.2323   102.2979 </r>
       <r>    -9.2527    31.4674   106.0000 </r>
       <r>    -9.1563     0.0000   106.0000 </r>
       <r>    -9.0599     0.0000   106.0000 </r>
       <r>    -8.9635     0.0000   106.0000 </r>
       <r>    -8.8672     0.0000   106.0000 </r>
       <r>    -8.7708    19.8316   107.9114 </r>
       <r>    -8.6744     0.0000   108.0000 </r>
       <r>    -8.5780     0.0000   108.0000 </r>
       <r>    -8.4816    16.8490   109.6240 </r>
       <r>    -8.3852     0.0000   110.0000 </r>
       <r>    -8.2889     2.7143   110.2616 </r>
       <r>    -8.1925    32.1318   114.0000 </r>
       <r>    -8.0961    23.6395   116.2785 </r>
       <r>    -7.9997    33.6243   119.9767 </r>
       <r>    -7.9033    41.4401   123.9975 </r>
       <r>    -7.8069     0.0000   124.0000 </r>
       <r>    -7.7106     0.0000   124.0000 </r>
       <r>    -7.6142     0.0000   124.0000 </r>
       <r>    -7.5178     0.0000   124.0000 </r>
       <r>    -7.4214     0.0000   124.0000 </r>
       <r>    -7.3250     0.0000   124.0000 </r>
       <r>    -7.2286     0.0000   124.0000 </r>
       <r>    -7.1323     0.0000   124.0000 </r>
       <r>    -7.0359     0.0067   124.0006 </r>
       <r>    -6.9395    32.5684   127.1397 </r>
       <r>    -6.8431     9.1760   128.8844 </r>
       <r>    -6.7467     8.6429   130.0000 </r>
       <r>    -6.6503     3.2575   130.3140 </r>
       <r>    -6.5540    14.5151   134.0000 </r>
       <r>    -6.4576    13.7635   135.3266 </r>
       <r>    -6.3612     4.8393   136.0000 </r>
       <r>    -6.2648     0.0000   136.0000 </r>
       <r>    -6.1684     0.0000   136.0000 </r>
       <r>    -6.0720    22.7414   138.1919 </r>
       <r>    -5.9757    15.5506   139.9989 </r>
       <r>    -5.8793     0.0000   140.0000 </r>
       <r>    -5.7829     0.4821   140.0465 </r>
       <r>    -5.6865    32.8363   144.0000 </r>
       <r>    -5.5901     0.0000   144.0000 </r>
       <r>    -5.4937     0.0000   144.0000 </r>
       <r>    -5.3974     0.0000   144.0000 </r>
       <r>    -5.3010     0.0000   144.0000 </r>
       <r>    -5.2046    10.3648   144.9990 </r>
       <r>    -5.1082    29.1620   148.3445 </r>
       <r>    -5.0118    18.1544   151.0512 </r>
       <r>    -4.9154    33.8172   154.6598 </r>
       <r>    -4.8191     7.2568   156.0000 </r>
       <r>    -4.7227     0.0000   156.0000 </r>
       <r>    -4.6263     0.0000   156.0000 </r>
       <r>    -4.5299     0.0000   156.0000 </r>
       <r>    -4.4335     0.0000   156.0000 </r>
       <r>    -4.3371     0.0000   156.0000 </r>
       <r>    -4.2408     0.0000   156.0000 </r>
       <r>    -4.1444     0.0000   156.0000 </r>
       <r>    -4.0480     0.0000   156.0000 </r>
       <r>    -3.9516     0.0000   156.0000 </r>
       <r>    -3.8552     0.0000   156.0000 </r>
       <r>    -3.7588     0.0000   156.0000 </r>
       <r>    -3.6625     0.0000   156.0000 </r>
       <r>    -3.5661     0.0000   156.0000 </r>
       <r>    -3.4697     0.0000   156.0000 </r>
       <r>    -3.3733     0.0000   156.0000 </r>
       <r>    -3.2769     0.0000   156.0000 </r>
       <r>    -3.1805     0.0000   156.0000 </r>
       <r>    -3.0842     0.0000   156.0000 </r>
       <r>    -2.9878     0.0000   156.0000 </r>
       <r>    -2.8914     0.0000   156.0000 </r>
       <r>    -2.7950     0.0000   156.0000 </r>
       <r>    -2.6986     0.0000   156.0000 </r>
       <r>    -2.6022     0.0000   156.0000 </r>
       <r>    -2.5059     0.0000   156.0000 </r>
       <r>    -2.4095     0.0000   156.0000 </r>
       <r>    -2.3131     0.0000   156.0000 </r>
       <r>    -2.2167     0.0000   156.0000 </r>
       <r>    -2.1203     0.0000   156.0000 </r>
       <r>    -2.0239     0.0000   156.0000 </r>
       <r>    -1.9276     0.0000   156.0000 </r>
       <r>    -1.8312     0.0000   156.0000 </r>
       <r>    -1.7348    20.9714   158.0213 </r>
       <r>    -1.6384    16.1614   159.9914 </r>
       <r>    -1.5420    12.3785   161.1931 </r>
       <r>    -1.4456     6.9129   162.0000 </r>
       <r>    -1.3493     0.0000   162.0000 </r>
       <r>    -1.2529     0.0000   162.0000 </r>
       <r>    -1.1565     2.2886   162.2206 </r>
       <r>    -1.0601    27.6180   165.9975 </r>
       <r>    -0.9637     9.9444   166.9585 </r>
       <r>    -0.8673    10.4983   168.7791 </r>
       <r>    -0.7710     9.7737   170.0429 </r>
       <r>    -0.6746    14.5146   172.0000 </r>
       <r>    -0.5782     0.7290   172.0703 </r>
       <r>    -0.4818    30.1314   175.3379 </r>
       <r>    -0.3854    20.7426   177.9994 </r>
       <r>    -0.2890     0.0000   178.0000 </r>
       <r>    -0.1927     0.0000   178.0000 </r>
       <r>    -0.0963     0.0000   178.0000 </r>
       <r>     0.0001     0.0000   178.0000 </r>
       <r>     0.0965     0.0382   178.0037 </r>
       <r>     0.1929    18.6643   180.0000 </r>
       <r>     0.2893     7.7261   180.7447 </r>
       <r>     0.3856    11.7682   182.0016 </r>
       <r>     0.4820    18.0698   183.7433 </r>
       <r>     0.5784    18.6165   185.6944 </r>
       <r>     0.6748    11.4459   187.1032 </r>
       <r>     0.7712    20.8486   189.4432 </r>
       <r>     0.8676    20.7209   191.9975 </r>
       <r>     0.9639     5.0825   192.4899 </r>
       <r>     1.0603    15.4546   194.5235 </r>
       <r>     1.1567    26.9940   197.3025 </r>
       <r>     1.2531    20.9939   199.6905 </r>
       <r>     1.3495    19.6201   201.9915 </r>
       <r>     1.4459    23.0863   204.9591 </r>
       <r>     1.5422    26.4381   207.9828 </r>
       <r>     1.6386    24.4275   211.0226 </r>
       <r>     1.7350    20.1464   213.3754 </r>
       <r>     1.8314    37.2055   217.7875 </r>
       <r>     1.9278    23.2166   220.7046 </r>
       <r>     2.0242    25.3945   223.4482 </r>
       <r>     2.1205     1.3828   224.0000 </r>
       <r>     2.2169     0.0000   224.0000 </r>
       <r>     2.3133     0.0000   224.0000 </r>
       <r>     2.4097     0.0000   224.0000 </r>
       <r>     2.5061     0.0000   224.0000 </r>
       <r>     2.6024     0.0000   224.0000 </r>
       <r>     2.6988     0.0000   224.0000 </r>
       <r>     2.7952     0.0000   224.0000 </r>
       <r>     2.8916     0.0000   224.0000 </r>
       <r>     2.9880     0.0000   224.0000 </r>
       <r>     3.0844     0.0000   224.0000 </r>
       <r>     3.1807     0.0000   224.0000 </r>
       <r>     3.2771     0.0000   224.0000 </r>
       <r>     3.3735     0.0000   224.0000 </r>
      </set>
     </set>
    </array>
   </total>
  </dos>
 </calculation>
 <structure name="finalpos" >
  <crystal>
   <varray name="basis" >
    <v>      14.69546797       0.00838544       0.00000000 </v>
    <v>      -7.34047707      12.73902208       0.00000000 </v>
    <v>       0.00000000       0.00000000      20.00000000 </v>
   </varray>
   <i name="volume">   3745.34888075 </i>
   <varray name="rec_basis" >
    <v>       0.06802582       0.03919783       0.00000000 </v>
    <v>      -0.00004478       0.07847316       0.00000000 </v>
    <v>       0.00000000       0.00000000       0.05000000 </v>
   </varray>
  </crystal>
  <varray name="positions" >
   <v>       0.91581844       0.45787839       0.42475166 </v>
   <v>       0.50541323       0.04749850       0.42508985 </v>
   <v>       0.49896134       0.45864689       0.42551684 </v>
   <v>       0.43294860       0.89232744       0.36496105 </v>
   <v>       0.41719451       0.53143492       0.36450595 </v>
   <v>       0.07016808       0.52897054       0.36394075 </v>
   <v>       0.44266491       0.93521639       0.54541484 </v>
   <v>       0.44757133       0.52154388       0.54511307 </v>
   <v>       0.02972610       0.52477716       0.54425854 </v>
   <v>       0.75022987       0.37922200       0.48437490 </v>
   <v>       0.69445290       0.43341598       0.48554335 </v>
   <v>       0.69540649       0.26940513       0.48352382 </v>
   <v>       0.86722321       0.43815217       0.48425946 </v>
   <v>       0.92425085       0.47199794       0.54394815 </v>
   <v>       0.58457440       0.37859301       0.48521974 </v>
   <v>       0.53049846       0.26878930       0.48486810 </v>
   <v>       0.58553720       0.21383703       0.48406888 </v>
   <v>       0.52727390       0.09688675       0.48439434 </v>
   <v>       0.52572737       0.43688764       0.48515274 </v>
   <v>       0.49567109       0.04062626       0.54446363 </v>
   <v>       0.50012287       0.46849748       0.54487151 </v>
   <v>       0.19630439       0.60277395       0.48533874 </v>
   <v>       0.25170471       0.54809880       0.48425099 </v>
   <v>       0.36170296       0.60223500       0.48570268 </v>
   <v>       0.41634300       0.71218247       0.48621308 </v>
   <v>       0.36204855       0.76802811       0.48672176 </v>
   <v>       0.25202115       0.71278960       0.48624051 </v>
   <v>       0.42086798       0.88505358       0.48702016 </v>
   <v>       0.45261395       0.94225767       0.42582488 </v>
   <v>       0.42004340       0.54335812       0.48641399 </v>
   <v>       0.44644080       0.51157509       0.42554594 </v>
   <v>       0.07920693       0.54444699       0.48570724 </v>
   <v>       0.02118245       0.51080564       0.42484860 </v>
   <v>       0.73862755       0.22688211       0.48247652 </v>
   <v>       0.73694972       0.51905608       0.48589351 </v>
   <v>       0.88457228       0.45622350       0.59224058 </v>
   <v>       0.51313321       0.08096956       0.59257919 </v>
   <v>       0.52226333       0.45101674       0.59325717 </v>
   <v>       0.50202552       0.75477840       0.48745703 </v>
   <v>       0.44482478       0.22573569       0.48480074 </v>
   <v>       0.20924744       0.75577452       0.48790443 </v>
   <v>       0.20874744       0.46245785       0.48376884 </v>
   <v>       0.37467885       0.81657079       0.36261382 </v>
   <v>       0.44291370       0.93789841       0.32444979 </v>
   <v>       0.39791987       0.58846026       0.36159493 </v>
   <v>       0.45228012       0.52057197       0.32405521 </v>
   <v>       0.14726966       0.58314218       0.36078998 </v>
   <v>       0.02472560       0.51619658       0.32299550 </v>
  </varray>
 </structure>
</modeling>
