<?xml version="1.0" encoding="ISO-8859-1"?>
<modeling>
 <generator>
  <i name="program" type="string">vasp </i>
  <i name="version" type="string">5.4.4.18Apr17-6-g9f103f2a35  </i>
  <i name="subversion" type="string">(build Jun 07 2020 16:50:00) complex            parallel </i>
  <i name="platform" type="string">LinuxIFC </i>
  <i name="date" type="string">2023 02 19 </i>
  <i name="time" type="string">16:15:54 </i>
 </generator>
 <incar>
  <i type="string" name="SYSTEM">Simulation for cell shape cell volume r</i>
  <i type="int" name="ISTART">     1</i>
  <i type="string" name="PREC">high</i>
  <i type="string" name="ALGO">48</i>
  <i type="int" name="ICHARG">    11</i>
  <i type="int" name="NELM">   200</i>
  <i type="int" name="IBRION">    -1</i>
  <i name="EDIFF">      0.00001000</i>
  <i name="EDIFFG">     -0.01000000</i>
  <i type="int" name="NSW">     0</i>
  <i type="int" name="ISIF">     2</i>
  <i name="ENCUT">    500.00000000</i>
  <i name="POTIM">      0.30000000</i>
  <i type="string" name="LREAL">A</i>
  <i type="int" name="ISMEAR">     0</i>
  <i name="SIGMA">      0.01000000</i>
  <i type="int" name="NWRITE">     0</i>
  <i type="logical" name="LWAVE"> F  </i>
  <i type="logical" name="LCHARG"> F  </i>
  <v type="int" name="KPOINT_BSE">    -1     0     0     0</v>
  <i type="int" name="NELM">   200</i>
  <i type="string" name="GGA">PE</i>
 </incar>
 <structure name="primitive_cell" >
  <crystal>
   <varray name="basis" >
    <v>      20.65242995       0.30900208       0.00000000 </v>
    <v>     -10.05308337      17.54416630       0.00000000 </v>
    <v>       0.00000000       0.00000000      20.00000000 </v>
   </varray>
   <i name="volume">   7308.72178081 </i>
   <varray name="rec_basis" >
    <v>       0.04800885       0.02750983       0.00000000 </v>
    <v>      -0.00084557       0.05651448       0.00000000 </v>
    <v>       0.00000000       0.00000000       0.05000000 </v>
   </varray>
  </crystal>
  <varray name="positions" >
   <v>       0.03514748      -0.17707775       0.43018725 </v>
   <v>      -0.02506739      -0.20879335       0.42794966 </v>
   <v>       0.07120233      -0.21142547       0.45405422 </v>
   <v>       0.07405293      -0.09967019       0.41274495 </v>
   <v>       0.14532823      -0.17317038       0.45660525 </v>
   <v>       0.14760763      -0.06226322       0.40941164 </v>
   <v>       0.03394694      -0.05550563       0.40588958 </v>
   <v>       0.18470736      -0.09885165       0.42726118 </v>
   <v>      -0.04036332      -0.09546848       0.40451275 </v>
   <v>       0.18203703      -0.20780097       0.49486482 </v>
   <v>       0.07395153       0.02018787       0.40762884 </v>
   <v>       0.25860927      -0.06242565       0.41640455 </v>
   <v>       0.14077306      -0.27832658      -0.48108092 </v>
   <v>      -0.07491093      -0.05394116       0.40743755 </v>
   <v>       0.28143701      -0.00756799       0.40206953 </v>
   <v>       0.28864348      -0.08219774       0.44175660 </v>
   <v>       0.25638499      -0.16655979      -0.49535926 </v>
   <v>       0.03378752       0.05601291       0.41099536 </v>
   <v>      -0.19077171      -0.16985264       0.41557087 </v>
   <v>      -0.04064840       0.02196700       0.41104716 </v>
   <v>      -0.15710095      -0.09466035       0.41343264 </v>
   <v>       0.17393776      -0.29862875      -0.43436365 </v>
   <v>      -0.26448936      -0.30721161       0.41836963 </v>
   <v>       0.28253759      -0.19057261      -0.44483864 </v>
   <v>      -0.26332751      -0.20733557       0.43092392 </v>
   <v>       0.07409243       0.13940047       0.42191057 </v>
   <v>       0.24087471      -0.25146295      -0.40743813 </v>
   <v>      -0.29721458      -0.28355865       0.42691753 </v>
   <v>       0.14760865       0.17466835       0.41829013 </v>
   <v>       0.14445038      -0.37838150      -0.41367793 </v>
   <v>       0.10169046      -0.43228255      -0.45676330 </v>
   <v>      -0.19676821      -0.05475364       0.42298166 </v>
   <v>      -0.17020162       0.00638130       0.41680866 </v>
   <v>       0.40288437      -0.09154094       0.47247912 </v>
   <v>      -0.34778454      -0.31280330       0.44928388 </v>
   <v>      -0.30060298      -0.16586427       0.45092923 </v>
   <v>       0.36375624      -0.15605009      -0.43401143 </v>
   <v>       0.03533262       0.17764181       0.44195025 </v>
   <v>      -0.26668617      -0.09052613       0.44335894 </v>
   <v>      -0.02491122       0.14961044       0.44122745 </v>
   <v>       0.41495376      -0.11816900      -0.48552310 </v>
   <v>       0.22260404      -0.29802077      -0.30878705 </v>
   <v>       0.18511617       0.24767621       0.43749811 </v>
   <v>       0.09679006       0.49945490      -0.45263452 </v>
   <v>       0.28165472       0.25203613       0.41104262 </v>
   <v>       0.17350563      -0.39837946      -0.35598425 </v>
   <v>       0.06166173       0.45623065      -0.48840903 </v>
   <v>       0.19801493      -0.35472269      -0.29989277 </v>
   <v>       0.25902172       0.28348796       0.42807002 </v>
   <v>       0.38497830      -0.17768813      -0.37872782 </v>
   <v>      -0.37258406      -0.20097729       0.48528437 </v>
   <v>       0.07151774       0.24758104       0.46583121 </v>
   <v>      -0.40601896      -0.27639543       0.49866374 </v>
   <v>       0.14572509       0.28305783       0.46696975 </v>
   <v>       0.14410344       0.48897171      -0.40817239 </v>
   <v>       0.17731944      -0.46233608      -0.35810933 </v>
   <v>       0.47773267      -0.12217474      -0.48800005 </v>
   <v>       0.22524578      -0.37126275      -0.26742023 </v>
   <v>       0.28984712       0.33514967       0.45003056 </v>
   <v>      -0.40186281      -0.15667434      -0.49693699 </v>
   <v>       0.45183521      -0.17224104      -0.37675055 </v>
   <v>      -0.45796498      -0.29954043      -0.45337600 </v>
   <v>      -0.49166678      -0.42810009       0.46651642 </v>
   <v>       0.49422891      -0.15468149      -0.43784458 </v>
   <v>       0.18268809       0.35501243      -0.49658971 </v>
   <v>       0.17521313       0.43864851      -0.42607341 </v>
   <v>       0.49495805      -0.38149508      -0.43850556 </v>
   <v>       0.25732801       0.38963709      -0.49001111 </v>
   <v>       0.47498838      -0.43679952      -0.48873534 </v>
   <v>       0.14117695       0.38409237      -0.47132028 </v>
   <v>      -0.45658889      -0.18730014      -0.45242622 </v>
   <v>       0.43768718      -0.20491089      -0.28064336 </v>
   <v>      -0.47886548      -0.25456666      -0.42179011 </v>
   <v>       0.47691828      -0.18329484      -0.31693109 </v>
   <v>       0.24354758       0.46019629      -0.40155329 </v>
   <v>       0.45829074      -0.39788187      -0.38050878 </v>
   <v>       0.28471993       0.44129361      -0.44099836 </v>
   <v>      -0.48897250      -0.20633019      -0.31943197 </v>
   <v>       0.40846885      -0.49874651      -0.48609119 </v>
   <v>       0.30839330       0.48588156      -0.31283769 </v>
   <v>       0.36559296       0.48984954      -0.43271761 </v>
   <v>       0.39637598      -0.46381120      -0.37398794 </v>
   <v>       0.36477500      -0.48378559      -0.31230608 </v>
   <v>       0.38710449      -0.44169886      -0.27786082 </v>
  </varray>
 </structure>
 <varray name="primitive_index" >
  <v type="int" >        1 </v>
  <v type="int" >       37 </v>
  <v type="int" >       55 </v>
  <v type="int" >       10 </v>
  <v type="int" >        9 </v>
  <v type="int" >       64 </v>
  <v type="int" >        8 </v>
  <v type="int" >       11 </v>
  <v type="int" >       62 </v>
  <v type="int" >       12 </v>
  <v type="int" >       63 </v>
  <v type="int" >       65 </v>
  <v type="int" >       56 </v>
  <v type="int" >       29 </v>
  <v type="int" >       43 </v>
  <v type="int" >       42 </v>
  <v type="int" >       66 </v>
  <v type="int" >       28 </v>
  <v type="int" >       80 </v>
  <v type="int" >       78 </v>
  <v type="int" >       31 </v>
  <v type="int" >        2 </v>
  <v type="int" >       51 </v>
  <v type="int" >       13 </v>
  <v type="int" >       32 </v>
  <v type="int" >       34 </v>
  <v type="int" >       57 </v>
  <v type="int" >       81 </v>
  <v type="int" >       82 </v>
  <v type="int" >        5 </v>
  <v type="int" >       68 </v>
  <v type="int" >       23 </v>
  <v type="int" >       46 </v>
  <v type="int" >       44 </v>
  <v type="int" >       50 </v>
  <v type="int" >       30 </v>
  <v type="int" >       14 </v>
  <v type="int" >       24 </v>
  <v type="int" >       74 </v>
  <v type="int" >       47 </v>
  <v type="int" >       15 </v>
  <v type="int" >       40 </v>
  <v type="int" >       35 </v>
  <v type="int" >       16 </v>
  <v type="int" >       53 </v>
  <v type="int" >        7 </v>
  <v type="int" >       45 </v>
  <v type="int" >       61 </v>
  <v type="int" >       83 </v>
  <v type="int" >       58 </v>
  <v type="int" >       20 </v>
  <v type="int" >       75 </v>
  <v type="int" >       79 </v>
  <v type="int" >       33 </v>
  <v type="int" >        6 </v>
  <v type="int" >       60 </v>
  <v type="int" >       67 </v>
  <v type="int" >       41 </v>
  <v type="int" >       52 </v>
  <v type="int" >       69 </v>
  <v type="int" >        4 </v>
  <v type="int" >       21 </v>
  <v type="int" >       54 </v>
  <v type="int" >        3 </v>
  <v type="int" >       22 </v>
  <v type="int" >       19 </v>
  <v type="int" >       26 </v>
  <v type="int" >       73 </v>
  <v type="int" >       36 </v>
  <v type="int" >       72 </v>
  <v type="int" >       17 </v>
  <v type="int" >       39 </v>
  <v type="int" >       70 </v>
  <v type="int" >       59 </v>
  <v type="int" >       71 </v>
  <v type="int" >       76 </v>
  <v type="int" >       18 </v>
  <v type="int" >       38 </v>
  <v type="int" >       84 </v>
  <v type="int" >       48 </v>
  <v type="int" >       25 </v>
  <v type="int" >       27 </v>
  <v type="int" >       77 </v>
  <v type="int" >       49 </v>
 </varray>
 <kpoints>
  <generation param="listgenerated">
   <i name="divisions" type="int">      20 </i>
   <v>       0.00000000       0.00000000       0.00000000 </v>
   <v>       0.50000000      -0.50000000       0.00000000 </v>
   <v>       0.66989732      -0.34354501       0.00000000 </v>
   <v>       0.50000000       0.00000000       0.00000000 </v>
   <v>       0.33010268       0.34354501       0.00000000 </v>
   <v>       0.00000000       0.50000000       0.00000000 </v>
   <v>       0.00000000       0.00000000       0.00000000 </v>
  </generation>
  <varray name="kpointlist" >
   <v>       0.00000000       0.00000000       0.00000000 </v>
   <v>       0.02631579      -0.02631579       0.00000000 </v>
   <v>       0.05263158      -0.05263158       0.00000000 </v>
   <v>       0.07894737      -0.07894737       0.00000000 </v>
   <v>       0.10526316      -0.10526316       0.00000000 </v>
   <v>       0.13157895      -0.13157895       0.00000000 </v>
   <v>       0.15789474      -0.15789474       0.00000000 </v>
   <v>       0.18421053      -0.18421053       0.00000000 </v>
   <v>       0.21052632      -0.21052632       0.00000000 </v>
   <v>       0.23684211      -0.23684211       0.00000000 </v>
   <v>       0.26315789      -0.26315789       0.00000000 </v>
   <v>       0.28947368      -0.28947368       0.00000000 </v>
   <v>       0.31578947      -0.31578947       0.00000000 </v>
   <v>       0.34210526      -0.34210526       0.00000000 </v>
   <v>       0.36842105      -0.36842105       0.00000000 </v>
   <v>       0.39473684      -0.39473684       0.00000000 </v>
   <v>       0.42105263      -0.42105263       0.00000000 </v>
   <v>       0.44736842      -0.44736842       0.00000000 </v>
   <v>       0.47368421      -0.47368421       0.00000000 </v>
   <v>       0.50000000      -0.50000000       0.00000000 </v>
   <v>       0.50000000      -0.50000000       0.00000000 </v>
   <v>       0.50894196      -0.49176553       0.00000000 </v>
   <v>       0.51788393      -0.48353105       0.00000000 </v>
   <v>       0.52682589      -0.47529658       0.00000000 </v>
   <v>       0.53576786      -0.46706211       0.00000000 </v>
   <v>       0.54470982      -0.45882763       0.00000000 </v>
   <v>       0.55365178      -0.45059316       0.00000000 </v>
   <v>       0.56259375      -0.44235869       0.00000000 </v>
   <v>       0.57153571      -0.43412421       0.00000000 </v>
   <v>       0.58047768      -0.42588974       0.00000000 </v>
   <v>       0.58941964      -0.41765527       0.00000000 </v>
   <v>       0.59836160      -0.40942079       0.00000000 </v>
   <v>       0.60730357      -0.40118632       0.00000000 </v>
   <v>       0.61624553      -0.39295185       0.00000000 </v>
   <v>       0.62518750      -0.38471737       0.00000000 </v>
   <v>       0.63412946      -0.37648290       0.00000000 </v>
   <v>       0.64307142      -0.36824843       0.00000000 </v>
   <v>       0.65201339      -0.36001395       0.00000000 </v>
   <v>       0.66095535      -0.35177948       0.00000000 </v>
   <v>       0.66989732      -0.34354501       0.00000000 </v>
   <v>       0.66989732      -0.34354501       0.00000000 </v>
   <v>       0.66095535      -0.32546369       0.00000000 </v>
   <v>       0.65201339      -0.30738238       0.00000000 </v>
   <v>       0.64307142      -0.28930106       0.00000000 </v>
   <v>       0.63412946      -0.27121974       0.00000000 </v>
   <v>       0.62518750      -0.25313843       0.00000000 </v>
   <v>       0.61624553      -0.23505711       0.00000000 </v>
   <v>       0.60730357      -0.21697579       0.00000000 </v>
   <v>       0.59836160      -0.19889448       0.00000000 </v>
   <v>       0.58941964      -0.18081316       0.00000000 </v>
   <v>       0.58047768      -0.16273185       0.00000000 </v>
   <v>       0.57153571      -0.14465053       0.00000000 </v>
   <v>       0.56259375      -0.12656921       0.00000000 </v>
   <v>       0.55365178      -0.10848790       0.00000000 </v>
   <v>       0.54470982      -0.09040658       0.00000000 </v>
   <v>       0.53576786      -0.07232526       0.00000000 </v>
   <v>       0.52682589      -0.05424395       0.00000000 </v>
   <v>       0.51788393      -0.03616263       0.00000000 </v>
   <v>       0.50894196      -0.01808132       0.00000000 </v>
   <v>       0.50000000       0.00000000       0.00000000 </v>
   <v>       0.50000000       0.00000000       0.00000000 </v>
   <v>       0.49105804       0.01808132       0.00000000 </v>
   <v>       0.48211607       0.03616263       0.00000000 </v>
   <v>       0.47317411       0.05424395       0.00000000 </v>
   <v>       0.46423214       0.07232526       0.00000000 </v>
   <v>       0.45529018       0.09040658       0.00000000 </v>
   <v>       0.44634822       0.10848790       0.00000000 </v>
   <v>       0.43740625       0.12656921       0.00000000 </v>
   <v>       0.42846429       0.14465053       0.00000000 </v>
   <v>       0.41952232       0.16273185       0.00000000 </v>
   <v>       0.41058036       0.18081316       0.00000000 </v>
   <v>       0.40163840       0.19889448       0.00000000 </v>
   <v>       0.39269643       0.21697579       0.00000000 </v>
   <v>       0.38375447       0.23505711       0.00000000 </v>
   <v>       0.37481250       0.25313843       0.00000000 </v>
   <v>       0.36587054       0.27121974       0.00000000 </v>
   <v>       0.35692858       0.28930106       0.00000000 </v>
   <v>       0.34798661       0.30738238       0.00000000 </v>
   <v>       0.33904465       0.32546369       0.00000000 </v>
   <v>       0.33010268       0.34354501       0.00000000 </v>
   <v>       0.33010268       0.34354501       0.00000000 </v>
   <v>       0.31272886       0.35177948       0.00000000 </v>
   <v>       0.29535503       0.36001395       0.00000000 </v>
   <v>       0.27798121       0.36824843       0.00000000 </v>
   <v>       0.26060738       0.37648290       0.00000000 </v>
   <v>       0.24323356       0.38471737       0.00000000 </v>
   <v>       0.22585973       0.39295185       0.00000000 </v>
   <v>       0.20848591       0.40118632       0.00000000 </v>
   <v>       0.19111208       0.40942079       0.00000000 </v>
   <v>       0.17373825       0.41765527       0.00000000 </v>
   <v>       0.15636443       0.42588974       0.00000000 </v>
   <v>       0.13899060       0.43412421       0.00000000 </v>
   <v>       0.12161678       0.44235869       0.00000000 </v>
   <v>       0.10424295       0.45059316       0.00000000 </v>
   <v>       0.08686913       0.45882763       0.00000000 </v>
   <v>       0.06949530       0.46706211       0.00000000 </v>
   <v>       0.05212148       0.47529658       0.00000000 </v>
   <v>       0.03474765       0.48353105       0.00000000 </v>
   <v>       0.01737383       0.49176553       0.00000000 </v>
   <v>       0.00000000       0.50000000       0.00000000 </v>
   <v>       0.00000000       0.50000000       0.00000000 </v>
   <v>       0.00000000       0.47368421       0.00000000 </v>
   <v>       0.00000000       0.44736842       0.00000000 </v>
   <v>       0.00000000       0.42105263       0.00000000 </v>
   <v>       0.00000000       0.39473684       0.00000000 </v>
   <v>       0.00000000       0.36842105       0.00000000 </v>
   <v>       0.00000000       0.34210526       0.00000000 </v>
   <v>       0.00000000       0.31578947       0.00000000 </v>
   <v>       0.00000000       0.28947368       0.00000000 </v>
   <v>       0.00000000       0.26315789       0.00000000 </v>
   <v>       0.00000000       0.23684211       0.00000000 </v>
   <v>       0.00000000       0.21052632       0.00000000 </v>
   <v>       0.00000000       0.18421053       0.00000000 </v>
   <v>       0.00000000       0.15789474       0.00000000 </v>
   <v>       0.00000000       0.13157895       0.00000000 </v>
   <v>       0.00000000       0.10526316       0.00000000 </v>
   <v>       0.00000000       0.07894737       0.00000000 </v>
   <v>       0.00000000       0.05263158       0.00000000 </v>
   <v>       0.00000000       0.02631579       0.00000000 </v>
   <v>       0.00000000       0.00000000       0.00000000 </v>
  </varray>
  <varray name="weights" >
   <v>       0.00833333 </v>
   <v>       0.00833333 </v>
   <v>       0.00833333 </v>
   <v>       0.00833333 </v>
   <v>       0.00833333 </v>
   <v>       0.00833333 </v>
   <v>       0.00833333 </v>
   <v>       0.00833333 </v>
   <v>       0.00833333 </v>
   <v>       0.00833333 </v>
   <v>       0.00833333 </v>
   <v>       0.00833333 </v>
   <v>       0.00833333 </v>
   <v>       0.00833333 </v>
   <v>       0.00833333 </v>
   <v>       0.00833333 </v>
   <v>       0.00833333 </v>
   <v>       0.00833333 </v>
   <v>       0.00833333 </v>
   <v>       0.00833333 </v>
   <v>       0.00833333 </v>
   <v>       0.00833333 </v>
   <v>       0.00833333 </v>
   <v>       0.00833333 </v>
   <v>       0.00833333 </v>
   <v>       0.00833333 </v>
   <v>       0.00833333 </v>
   <v>       0.00833333 </v>
   <v>       0.00833333 </v>
   <v>       0.00833333 </v>
   <v>       0.00833333 </v>
   <v>       0.00833333 </v>
   <v>       0.00833333 </v>
   <v>       0.00833333 </v>
   <v>       0.00833333 </v>
   <v>       0.00833333 </v>
   <v>       0.00833333 </v>
   <v>       0.00833333 </v>
   <v>       0.00833333 </v>
   <v>       0.00833333 </v>
   <v>       0.00833333 </v>
   <v>       0.00833333 </v>
   <v>       0.00833333 </v>
   <v>       0.00833333 </v>
   <v>       0.00833333 </v>
   <v>       0.00833333 </v>
   <v>       0.00833333 </v>
   <v>       0.00833333 </v>
   <v>       0.00833333 </v>
   <v>       0.00833333 </v>
   <v>       0.00833333 </v>
   <v>       0.00833333 </v>
   <v>       0.00833333 </v>
   <v>       0.00833333 </v>
   <v>       0.00833333 </v>
   <v>       0.00833333 </v>
   <v>       0.00833333 </v>
   <v>       0.00833333 </v>
   <v>       0.00833333 </v>
   <v>       0.00833333 </v>
   <v>       0.00833333 </v>
   <v>       0.00833333 </v>
   <v>       0.00833333 </v>
   <v>       0.00833333 </v>
   <v>       0.00833333 </v>
   <v>       0.00833333 </v>
   <v>       0.00833333 </v>
   <v>       0.00833333 </v>
   <v>       0.00833333 </v>
   <v>       0.00833333 </v>
   <v>       0.00833333 </v>
   <v>       0.00833333 </v>
   <v>       0.00833333 </v>
   <v>       0.00833333 </v>
   <v>       0.00833333 </v>
   <v>       0.00833333 </v>
   <v>       0.00833333 </v>
   <v>       0.00833333 </v>
   <v>       0.00833333 </v>
   <v>       0.00833333 </v>
   <v>       0.00833333 </v>
   <v>       0.00833333 </v>
   <v>       0.00833333 </v>
   <v>       0.00833333 </v>
   <v>       0.00833333 </v>
   <v>       0.00833333 </v>
   <v>       0.00833333 </v>
   <v>       0.00833333 </v>
   <v>       0.00833333 </v>
   <v>       0.00833333 </v>
   <v>       0.00833333 </v>
   <v>       0.00833333 </v>
   <v>       0.00833333 </v>
   <v>       0.00833333 </v>
   <v>       0.00833333 </v>
   <v>       0.00833333 </v>
   <v>       0.00833333 </v>
   <v>       0.00833333 </v>
   <v>       0.00833333 </v>
   <v>       0.00833333 </v>
   <v>       0.00833333 </v>
   <v>       0.00833333 </v>
   <v>       0.00833333 </v>
   <v>       0.00833333 </v>
   <v>       0.00833333 </v>
   <v>       0.00833333 </v>
   <v>       0.00833333 </v>
   <v>       0.00833333 </v>
   <v>       0.00833333 </v>
   <v>       0.00833333 </v>
   <v>       0.00833333 </v>
   <v>       0.00833333 </v>
   <v>       0.00833333 </v>
   <v>       0.00833333 </v>
   <v>       0.00833333 </v>
   <v>       0.00833333 </v>
   <v>       0.00833333 </v>
   <v>       0.00833333 </v>
   <v>       0.00833333 </v>
   <v>       0.00833333 </v>
  </varray>
 </kpoints>
 <parameters>
  <separator name="general" >
   <i type="string" name="SYSTEM">Simulation for cell shape cell volume r</i>
   <i type="logical" name="LCOMPAT"> F  </i>
  </separator>
  <separator name="electronic" >
   <i type="string" name="PREC">high</i>
   <i name="ENMAX">    500.00000000</i>
   <i name="ENAUG">    644.87300000</i>
   <i name="EDIFF">      0.00001000</i>
   <i type="int" name="IALGO">    38</i>
   <i type="int" name="IWAVPR">    10</i>
   <i type="int" name="NBANDS">   208</i>
   <i name="NELECT">    312.00000000</i>
   <i type="int" name="TURBO">     0</i>
   <i type="int" name="IRESTART">     0</i>
   <i type="int" name="NREBOOT">     0</i>
   <i type="int" name="NMIN">     0</i>
   <i name="EREF">      0.00000000</i>
   <separator name="electronic smearing" >
    <i type="int" name="ISMEAR">     0</i>
    <i name="SIGMA">      0.01000000</i>
    <i name="KSPACING">      0.50000000</i>
    <i type="logical" name="KGAMMA"> T  </i>
   </separator>
   <separator name="electronic projectors" >
    <i type="logical" name="LREAL"> T  </i>
    <v name="ROPT">     -0.00040000     -0.00040000     -0.00040000</v>
    <i type="int" name="LMAXPAW">  -100</i>
    <i type="int" name="LMAXMIX">     2</i>
    <i type="logical" name="NLSPLINE"> F  </i>
   </separator>
   <separator name="electronic startup" >
    <i type="int" name="ISTART">     1</i>
    <i type="int" name="ICHARG">    11</i>
    <i type="int" name="INIWAV">     1</i>
   </separator>
   <separator name="electronic spin" >
    <i type="int" name="ISPIN">     1</i>
    <i type="logical" name="LNONCOLLINEAR"> F  </i>
    <v name="MAGMOM">      1.00000000      1.00000000      1.00000000      1.00000000      1.00000000      1.00000000      1.00000000      1.00000000      1.00000000      1.00000000      1.00000000      1.00000000      1.00000000      1.00000000      1.00000000      1.00000000      1.00000000      1.00000000      1.00000000      1.00000000
      1.00000000      1.00000000      1.00000000      1.00000000      1.00000000      1.00000000      1.00000000      1.00000000      1.00000000      1.00000000      1.00000000      1.00000000      1.00000000      1.00000000      1.00000000      1.00000000      1.00000000      1.00000000      1.00000000      1.00000000
      1.00000000      1.00000000      1.00000000      1.00000000      1.00000000      1.00000000      1.00000000      1.00000000      1.00000000      1.00000000      1.00000000      1.00000000      1.00000000      1.00000000      1.00000000      1.00000000      1.00000000      1.00000000      1.00000000      1.00000000
      1.00000000      1.00000000      1.00000000      1.00000000      1.00000000      1.00000000      1.00000000      1.00000000      1.00000000      1.00000000      1.00000000      1.00000000      1.00000000      1.00000000      1.00000000      1.00000000      1.00000000      1.00000000      1.00000000      1.00000000
      1.00000000      1.00000000      1.00000000      1.00000000</v>
    <i name="NUPDOWN">     -1.00000000</i>
    <i type="logical" name="LSORBIT"> F  </i>
    <v name="SAXIS">      0.00000000      0.00000000      1.00000000</v>
    <i type="logical" name="LSPIRAL"> F  </i>
    <v name="QSPIRAL">      0.00000000      0.00000000      0.00000000</v>
    <i type="logical" name="LZEROZ"> F  </i>
   </separator>
   <separator name="electronic exchange-correlation" >
    <i type="logical" name="LASPH"> F  </i>
    <i type="logical" name="LMETAGGA"> F  </i>
   </separator>
   <separator name="electronic convergence" >
    <i type="int" name="NELM">   200</i>
    <i type="int" name="NELMDL">     0</i>
    <i type="int" name="NELMIN">     2</i>
    <i name="ENINI">    500.00000000</i>
    <separator name="electronic convergence detail" >
     <i type="logical" name="LDIAG"> T  </i>
     <i type="logical" name="LSUBROT"> F  </i>
     <i name="WEIMIN">      0.00000000</i>
     <i name="EBREAK">      0.00000001</i>
     <i name="DEPER">      0.30000000</i>
     <i type="int" name="NRMM">     4</i>
     <i name="TIME">      0.40000000</i>
    </separator>
   </separator>
   <separator name="electronic mixer" >
    <i name="AMIX">      0.40000000</i>
    <i name="BMIX">      1.00000000</i>
    <i name="AMIN">      0.10000000</i>
    <i name="AMIX_MAG">      1.60000000</i>
    <i name="BMIX_MAG">      1.00000000</i>
    <separator name="electronic mixer details" >
     <i type="int" name="IMIX">     4</i>
     <i type="logical" name="MIXFIRST"> F  </i>
     <i type="int" name="MAXMIX">   -45</i>
     <i name="WC">    100.00000000</i>
     <i type="int" name="INIMIX">     1</i>
     <i type="int" name="MIXPRE">     1</i>
     <i type="int" name="MREMOVE">     5</i>
    </separator>
   </separator>
   <separator name="electronic dipolcorrection" >
    <i type="logical" name="LDIPOL"> F  </i>
    <i type="logical" name="LMONO"> F  </i>
    <i type="int" name="IDIPOL">     0</i>
    <i name="EPSILON">      1.00000000</i>
    <v name="DIPOL">   -100.00000000   -100.00000000   -100.00000000</v>
    <i name="EFIELD">      0.00000000</i>
   </separator>
  </separator>
  <separator name="grids" >
   <i type="int" name="NGX">   160</i>
   <i type="int" name="NGY">   150</i>
   <i type="int" name="NGZ">   150</i>
   <i type="int" name="NGXF">   240</i>
   <i type="int" name="NGYF">   224</i>
   <i type="int" name="NGZF">   224</i>
   <i type="logical" name="ADDGRID"> F  </i>
  </separator>
  <separator name="ionic" >
   <i type="int" name="NSW">     0</i>
   <i type="int" name="IBRION">    -1</i>
   <i type="int" name="MDALGO">     0</i>
   <i type="int" name="ISIF">     2</i>
   <i name="PSTRESS">      0.00000000</i>
   <i name="EDIFFG">     -0.01000000</i>
   <i type="int" name="NFREE">     0</i>
   <i name="POTIM">      0.30000000</i>
   <i name="SMASS">     -3.00000000</i>
   <i name="SCALEE">      1.00000000</i>
  </separator>
  <separator name="ionic md" >
   <i name="TEBEG">      0.00010000</i>
   <i name="TEEND">      0.00010000</i>
   <i type="int" name="NBLOCK">     1</i>
   <i type="int" name="KBLOCK">     1</i>
   <i type="int" name="NPACO">   256</i>
   <i name="APACO">     16.00000000</i>
  </separator>
  <separator name="symmetry" >
   <i type="int" name="ISYM">     2</i>
   <i name="SYMPREC">      0.00001000</i>
  </separator>
  <separator name="dos" >
   <i type="int" name="LORBIT">     0</i>
   <v name="RWIGS">     -1.00000000     -1.00000000     -1.00000000</v>
   <i type="int" name="NEDOS">   301</i>
   <i name="EMIN">     10.00000000</i>
   <i name="EMAX">    -10.00000000</i>
   <i name="EFERMI">      0.00000000</i>
  </separator>
  <separator name="writing" >
   <i type="int" name="NWRITE">     0</i>
   <i type="logical" name="LWAVE"> F  </i>
   <i type="logical" name="LDOWNSAMPLE"> F  </i>
   <i type="logical" name="LCHARG"> F  </i>
   <i type="logical" name="LPARD"> F  </i>
   <i type="logical" name="LVTOT"> F  </i>
   <i type="logical" name="LVHAR"> F  </i>
   <i type="logical" name="LELF"> F  </i>
   <i type="logical" name="LOPTICS"> F  </i>
   <v name="STM">      0.00000000      0.00000000      0.00000000      0.00000000      0.00000000      0.00000000      0.00000000</v>
  </separator>
  <separator name="performance" >
   <i type="int" name="NPAR">    16</i>
   <i type="int" name="NSIM">     4</i>
   <i type="int" name="NBLK">    -1</i>
   <i type="logical" name="LPLANE"> T  </i>
   <i type="logical" name="LSCALAPACK"> T  </i>
   <i type="logical" name="LSCAAWARE"> F  </i>
   <i type="logical" name="LSCALU"> F  </i>
   <i type="logical" name="LASYNC"> F  </i>
   <i type="logical" name="LORBITALREAL"> F  </i>
  </separator>
  <separator name="miscellaneous" >
   <i type="int" name="IDIOT">     3</i>
   <i type="int" name="ISPECIAL">     0</i>
   <i type="logical" name="LMUSIC"> F  </i>
   <v name="POMASS">     12.01100000      1.00000000     14.00100000</v>
   <v name="DARWINR">      0.00000000      0.00000000      0.00000000</v>
   <v name="DARWINV">      1.00000000      1.00000000      1.00000000</v>
   <i type="logical" name="LCORR"> T  </i>
  </separator>
  <i type="logical" name="GGA_COMPAT"> T  </i>
  <i type="logical" name="LBERRY"> F  </i>
  <i type="int" name="ICORELEVEL">     0</i>
  <i type="logical" name="LDAU"> F  </i>
  <i type="int" name="I_CONSTRAINED_M">     0</i>
  <separator name="electronic exchange-correlation" >
   <i type="string" name="GGA">PE</i>
   <i type="int" name="VOSKOWN">     0</i>
   <i type="logical" name="LHFCALC"> F  </i>
   <i type="string" name="PRECFOCK"></i>
   <i type="logical" name="LSYMGRAD"> F  </i>
   <i type="logical" name="LHFONE"> F  </i>
   <i type="logical" name="LRHFCALC"> F  </i>
   <i type="logical" name="LTHOMAS"> F  </i>
   <i type="logical" name="LMODELHF"> F  </i>
   <i name="ENCUT4O">     -1.00000000</i>
   <i type="int" name="EXXOEP">     0</i>
   <i type="int" name="FOURORBIT">     0</i>
   <i name="AEXX">      0.00000000</i>
   <i name="HFALPHA">      0.00000000</i>
   <i name="MCALPHA">      0.00000000</i>
   <i name="ALDAX">      1.00000000</i>
   <i name="AGGAX">      1.00000000</i>
   <i name="ALDAC">      1.00000000</i>
   <i name="AGGAC">      1.00000000</i>
   <i type="int" name="NKREDX">     1</i>
   <i type="int" name="NKREDY">     1</i>
   <i type="int" name="NKREDZ">     1</i>
   <i type="logical" name="SHIFTRED"> F  </i>
   <i type="logical" name="ODDONLY"> F  </i>
   <i type="logical" name="EVENONLY"> F  </i>
   <i type="int" name="LMAXFOCK">     0</i>
   <i type="int" name="NMAXFOCKAE">     0</i>
   <i type="logical" name="LFOCKAEDFT"> F  </i>
   <i name="HFSCREEN">      0.00000000</i>
   <i name="HFSCREENC">      0.00000000</i>
   <i type="int" name="NBANDSGWLOW">     0</i>
  </separator>
  <separator name="vdW DFT" >
   <i type="logical" name="LUSE_VDW"> F  </i>
   <i name="Zab_VDW">     -0.84910000</i>
   <i name="PARAM1">      0.12340000</i>
   <i name="PARAM2">      1.00000000</i>
   <i name="PARAM3">      0.00000000</i>
  </separator>
  <separator name="model GW" >
   <i type="int" name="MODEL_GW">     0</i>
   <i name="MODEL_EPS0">     52.20515558</i>
   <i name="MODEL_ALPHA">      1.00000000</i>
  </separator>
  <separator name="linear response parameters" >
   <i type="logical" name="LEPSILON"> F  </i>
   <i type="logical" name="LRPA"> F  </i>
   <i type="logical" name="LNABLA"> F  </i>
   <i type="logical" name="LVEL"> F  </i>
   <i type="int" name="KINTER">     0</i>
   <i name="CSHIFT">      0.10000000</i>
   <i name="OMEGAMAX">     -1.00000000</i>
   <i name="DEG_THRESHOLD">      0.00200000</i>
   <i name="RTIME">     -0.10000000</i>
   <i name="WPLASMAI">      0.00000000</i>
   <v name="DFIELD">      0.00000000      0.00000000      0.00000000</v>
   <v name="WPLASMA">      0.00000000      0.00000000      0.00000000      0.00000000      0.00000000      0.00000000      0.00000000      0.00000000      0.00000000</v>
  </separator>
  <separator name="orbital magnetization" >
   <i type="logical" name="NUCIND"> F  </i>
   <v name="MAGPOS">      0.00000000      0.00000000      0.00000000</v>
   <i type="logical" name="LNICSALL"> T  </i>
   <i type="logical" name="ORBITALMAG"> F  </i>
   <i type="logical" name="LMAGBLOCH"> F  </i>
   <i type="logical" name="LCHIMAG"> F  </i>
   <i type="logical" name="LGAUGE"> T  </i>
   <i type="int" name="MAGATOM">     0</i>
   <v name="MAGDIPOL">      0.00000000      0.00000000      0.00000000</v>
   <v name="AVECCONST">      0.00000000      0.00000000      0.00000000</v>
  </separator>
  <separator name="response functions" >
   <i type="logical" name="LADDER"> F  </i>
   <i type="logical" name="LRPAFORCE"> F  </i>
   <i type="logical" name="LFXC"> F  </i>
   <i type="logical" name="LHARTREE"> T  </i>
   <i type="int" name="IBSE">     0</i>
   <v type="int" name="KPOINT">    -1     0     0     0</v>
   <i type="logical" name="LTCTE"> F  </i>
   <i type="logical" name="LTETE"> F  </i>
   <i type="logical" name="LTRIPLET"> F  </i>
   <i type="logical" name="LFXCEPS"> F  </i>
   <i type="logical" name="LFXHEG"> F  </i>
   <i type="int" name="NATURALO">     2</i>
   <i type="logical" name="L2ORDER"> F  </i>
   <i type="logical" name="LMP2LT"> F  </i>
   <i type="logical" name="LUSEW"> F  </i>
   <i name="ENCUTGW">     -2.00000000</i>
   <i name="ENCUTGWSOFT">     -2.00000000</i>
   <i name="ENCUTLF">     -1.00000000</i>
   <i type="int" name="LMAXMP2">    -1</i>
   <i name="SCISSOR">      0.00000000</i>
   <i type="int" name="NOMEGA">     0</i>
   <i type="int" name="NOMEGAR">     0</i>
   <i type="int" name="NBANDSGW">    -1</i>
   <i type="int" name="NBANDSO">    -1</i>
   <i type="int" name="NBANDSV">    -1</i>
   <i type="int" name="NELM">   200</i>
   <i type="int" name="NELMHF">     1</i>
   <i type="int" name="DIM">     3</i>
   <i type="int" name="ANTIRES">     0</i>
   <i name="OMEGAMAX">    -30.00000000</i>
   <i name="OMEGAMIN">    -30.00000000</i>
   <i name="OMEGATL">   -200.00000000</i>
   <i type="int" name="OMEGAGRID">   140</i>
   <i name="CSHIFT">     -0.10000000</i>
   <i type="logical" name="SELFENERGY"> F  </i>
   <i type="logical" name="LSPECTRAL"> F  </i>
   <i type="logical" name="LSPECTRALGW"> F  </i>
   <i type="logical" name="LSINGLES"> F  </i>
   <i type="logical" name="LFERMIGW"> F  </i>
   <i type="logical" name="ODDONLYGW"> F  </i>
   <i type="logical" name="EVENONLYGW"> F  </i>
   <i type="int" name="NKREDLFX">     1</i>
   <i type="int" name="NKREDLFY">     1</i>
   <i type="int" name="NKREDLFZ">     1</i>
   <i type="int" name="MAXMEM">  2800</i>
   <i type="int" name="TELESCOPE">     0</i>
   <i type="int" name="TAUPAR">     1</i>
   <i type="int" name="OMEGAPAR">    -1</i>
   <i name="LAMBDA">      1.00000000</i>
  </separator>
  <separator name="External order field" >
   <i name="OFIELD_KAPPA">      0.00000000</i>
   <v name="OFIELD_K">      0.00000000      0.00000000      0.00000000</v>
   <i name="OFIELD_Q6_NEAR">      0.00000000</i>
   <i name="OFIELD_Q6_FAR">      0.00000000</i>
   <i name="OFIELD_A">      0.00000000</i>
  </separator>
  <separator name="solvation model" >
   <i type="logical" name="LSOL"> F  </i>
  </separator>
 </parameters>
 <atominfo>
  <atoms>      84 </atoms>
  <types>       3 </types>
  <array name="atoms" >
   <dimension dim="1">ion</dimension>
   <field type="string">element</field>
   <field type="int">atomtype</field>
   <set>
    <rc><c>C </c><c>   1</c></rc>
    <rc><c>C </c><c>   1</c></rc>
    <rc><c>C </c><c>   1</c></rc>
    <rc><c>C </c><c>   1</c></rc>
    <rc><c>C </c><c>   1</c></rc>
    <rc><c>C </c><c>   1</c></rc>
    <rc><c>C </c><c>   1</c></rc>
    <rc><c>C </c><c>   1</c></rc>
    <rc><c>C </c><c>   1</c></rc>
    <rc><c>C </c><c>   1</c></rc>
    <rc><c>C </c><c>   1</c></rc>
    <rc><c>C </c><c>   1</c></rc>
    <rc><c>C </c><c>   1</c></rc>
    <rc><c>C </c><c>   1</c></rc>
    <rc><c>C </c><c>   1</c></rc>
    <rc><c>C </c><c>   1</c></rc>
    <rc><c>C </c><c>   1</c></rc>
    <rc><c>C </c><c>   1</c></rc>
    <rc><c>C </c><c>   1</c></rc>
    <rc><c>C </c><c>   1</c></rc>
    <rc><c>C </c><c>   1</c></rc>
    <rc><c>C </c><c>   1</c></rc>
    <rc><c>C </c><c>   1</c></rc>
    <rc><c>C </c><c>   1</c></rc>
    <rc><c>C </c><c>   1</c></rc>
    <rc><c>C </c><c>   1</c></rc>
    <rc><c>C </c><c>   1</c></rc>
    <rc><c>C </c><c>   1</c></rc>
    <rc><c>C </c><c>   1</c></rc>
    <rc><c>C </c><c>   1</c></rc>
    <rc><c>C </c><c>   1</c></rc>
    <rc><c>C </c><c>   1</c></rc>
    <rc><c>C </c><c>   1</c></rc>
    <rc><c>C </c><c>   1</c></rc>
    <rc><c>C </c><c>   1</c></rc>
    <rc><c>C </c><c>   1</c></rc>
    <rc><c>H </c><c>   2</c></rc>
    <rc><c>H </c><c>   2</c></rc>
    <rc><c>H </c><c>   2</c></rc>
    <rc><c>H </c><c>   2</c></rc>
    <rc><c>H </c><c>   2</c></rc>
    <rc><c>H </c><c>   2</c></rc>
    <rc><c>H </c><c>   2</c></rc>
    <rc><c>H </c><c>   2</c></rc>
    <rc><c>H </c><c>   2</c></rc>
    <rc><c>H </c><c>   2</c></rc>
    <rc><c>H </c><c>   2</c></rc>
    <rc><c>H </c><c>   2</c></rc>
    <rc><c>H </c><c>   2</c></rc>
    <rc><c>H </c><c>   2</c></rc>
    <rc><c>H </c><c>   2</c></rc>
    <rc><c>H </c><c>   2</c></rc>
    <rc><c>H </c><c>   2</c></rc>
    <rc><c>H </c><c>   2</c></rc>
    <rc><c>N </c><c>   3</c></rc>
    <rc><c>N </c><c>   3</c></rc>
    <rc><c>N </c><c>   3</c></rc>
    <rc><c>N </c><c>   3</c></rc>
    <rc><c>N </c><c>   3</c></rc>
    <rc><c>N </c><c>   3</c></rc>
    <rc><c>N </c><c>   3</c></rc>
    <rc><c>N </c><c>   3</c></rc>
    <rc><c>N </c><c>   3</c></rc>
    <rc><c>N </c><c>   3</c></rc>
    <rc><c>N </c><c>   3</c></rc>
    <rc><c>N </c><c>   3</c></rc>
    <rc><c>N </c><c>   3</c></rc>
    <rc><c>N </c><c>   3</c></rc>
    <rc><c>N </c><c>   3</c></rc>
    <rc><c>N </c><c>   3</c></rc>
    <rc><c>N </c><c>   3</c></rc>
    <rc><c>N </c><c>   3</c></rc>
    <rc><c>N </c><c>   3</c></rc>
    <rc><c>N </c><c>   3</c></rc>
    <rc><c>N </c><c>   3</c></rc>
    <rc><c>N </c><c>   3</c></rc>
    <rc><c>N </c><c>   3</c></rc>
    <rc><c>N </c><c>   3</c></rc>
    <rc><c>N </c><c>   3</c></rc>
    <rc><c>N </c><c>   3</c></rc>
    <rc><c>N </c><c>   3</c></rc>
    <rc><c>N </c><c>   3</c></rc>
    <rc><c>N </c><c>   3</c></rc>
    <rc><c>N </c><c>   3</c></rc>
   </set>
  </array>
  <array name="atomtypes" >
   <dimension dim="1">type</dimension>
   <field type="int">atomspertype</field>
   <field type="string">element</field>
   <field>mass</field>
   <field>valence</field>
   <field type="string">pseudopotential</field>
   <set>
    <rc><c>  36</c><c>C </c><c>     12.01100000</c><c>      4.00000000</c><c>  PAW_PBE C 08Apr2002                   </c></rc>
    <rc><c>  18</c><c>H </c><c>      1.00000000</c><c>      1.00000000</c><c>  PAW_PBE H 15Jun2001                   </c></rc>
    <rc><c>  30</c><c>N </c><c>     14.00100000</c><c>      5.00000000</c><c>  PAW_PBE N 08Apr2002                   </c></rc>
   </set>
  </array>
 </atominfo>
 <structure name="initialpos" >
  <crystal>
   <varray name="basis" >
    <v>      20.65242995       0.30900208       0.00000000 </v>
    <v>     -10.05308337      17.54416630       0.00000000 </v>
    <v>       0.00000000       0.00000000      20.00000000 </v>
   </varray>
   <i name="volume">   7308.72178081 </i>
   <varray name="rec_basis" >
    <v>       0.04800885       0.02750983       0.00000000 </v>
    <v>      -0.00084557       0.05651448       0.00000000 </v>
    <v>       0.00000000       0.00000000       0.05000000 </v>
   </varray>
  </crystal>
  <varray name="positions" >
   <v>       0.03514748       0.82292225       0.43018725 </v>
   <v>       0.17393776       0.70137125       0.56563635 </v>
   <v>       0.49422891       0.84531851       0.56215542 </v>
   <v>       0.45183521       0.82775896       0.62324945 </v>
   <v>       0.14445038       0.62161850       0.58632207 </v>
   <v>       0.14410344       0.48897171       0.59182761 </v>
   <v>       0.17350563       0.60162054       0.64401575 </v>
   <v>       0.03394694       0.94449437       0.40588958 </v>
   <v>       0.14532823       0.82682962       0.45660525 </v>
   <v>       0.07405293       0.90032981       0.41274495 </v>
   <v>       0.18470736       0.90114835       0.42726118 </v>
   <v>       0.18203703       0.79219903       0.49486482 </v>
   <v>       0.28253759       0.80942739       0.55516136 </v>
   <v>       0.36375624       0.84394991       0.56598857 </v>
   <v>       0.41495376       0.88183100       0.51447690 </v>
   <v>       0.09679006       0.49945490       0.54736548 </v>
   <v>       0.54341111       0.81269986       0.54757378 </v>
   <v>       0.28471993       0.44129361       0.55900164 </v>
   <v>       0.17521313       0.43864851       0.57392659 </v>
   <v>       0.62741594       0.79902271       0.48528437 </v>
   <v>       0.54203502       0.70045957       0.54662400 </v>
   <v>       0.18268809       0.35501243       0.50341029 </v>
   <v>       0.80323179       0.94524636       0.42298166 </v>
   <v>       0.03533262       0.17764181       0.44195025 </v>
   <v>       0.36559296       0.48984954       0.56728239 </v>
   <v>       0.49495805       0.61850492       0.56149444 </v>
   <v>       0.39637598       0.53618880       0.62601206 </v>
   <v>       0.03378752       0.05601291       0.41099536 </v>
   <v>       0.92508907       0.94605884       0.40743755 </v>
   <v>       0.69939702       0.83413573       0.45092923 </v>
   <v>       0.84289905       0.90533965       0.41343264 </v>
   <v>       0.73667249       0.79266443       0.43092392 </v>
   <v>       0.14572509       0.28305783       0.46696975 </v>
   <v>       0.07409243       0.13940047       0.42191057 </v>
   <v>       0.18511617       0.24767621       0.43749811 </v>
   <v>       0.47498838       0.56320048       0.51126466 </v>
   <v>       0.97493261       0.79120665       0.42794966 </v>
   <v>       0.51102750       0.79366981       0.68056803 </v>
   <v>       0.43768718       0.79508911       0.71935664 </v>
   <v>       0.22260404       0.70197923       0.69121295 </v>
   <v>       0.22524578       0.62873725       0.73257977 </v>
   <v>       0.28864348       0.91780226       0.44175660 </v>
   <v>       0.28143701       0.99243201       0.40206953 </v>
   <v>       0.40288437       0.90845906       0.47247912 </v>
   <v>       0.06166173       0.45623065       0.51159097 </v>
   <v>       0.82979838       0.00638130       0.41680866 </v>
   <v>       0.97508878       0.14961044       0.44122745 </v>
   <v>       0.30839330       0.48588156       0.68716231 </v>
   <v>       0.38710449       0.55830114       0.72213918 </v>
   <v>       0.65221546       0.68719670       0.44928388 </v>
   <v>       0.73551064       0.69278839       0.41836963 </v>
   <v>       0.28984712       0.33514967       0.45003056 </v>
   <v>       0.28165472       0.25203613       0.41104262 </v>
   <v>       0.50833322       0.57189991       0.46651642 </v>
   <v>       0.07120233       0.78857453       0.45405422 </v>
   <v>       0.14077306       0.72167342       0.51891908 </v>
   <v>       0.24087471       0.74853705       0.59256187 </v>
   <v>       0.38497830       0.82231187       0.62127218 </v>
   <v>       0.47691828       0.81670516       0.68306891 </v>
   <v>       0.17731944       0.53766392       0.64189067 </v>
   <v>       0.19801493       0.64527731       0.70010723 </v>
   <v>       0.95963668       0.90453152       0.40451275 </v>
   <v>       0.07395153       0.02018787       0.40762884 </v>
   <v>       0.14760763       0.93773678       0.40941164 </v>
   <v>       0.25860927       0.93757435       0.41640455 </v>
   <v>       0.25638499       0.83344021       0.50464074 </v>
   <v>       0.47773267       0.87782526       0.51199995 </v>
   <v>       0.10169046       0.56771745       0.54323670 </v>
   <v>       0.59813719       0.84332566       0.50306301 </v>
   <v>       0.52113452       0.74543334       0.57820989 </v>
   <v>       0.24354758       0.46019629       0.59844671 </v>
   <v>       0.14117695       0.38409237       0.52867972 </v>
   <v>       0.25732801       0.38963709       0.50998889 </v>
   <v>       0.73331383       0.90947387       0.44335894 </v>
   <v>       0.07151774       0.24758104       0.46583121 </v>
   <v>       0.45829074       0.60211813       0.61949122 </v>
   <v>       0.36477500       0.51621441       0.68769392 </v>
   <v>       0.95935160       0.02196700       0.41104716 </v>
   <v>       0.59398104       0.72360457       0.49866374 </v>
   <v>       0.80922829       0.83014736       0.41557087 </v>
   <v>       0.70278542       0.71644135       0.42691753 </v>
   <v>       0.14760865       0.17466835       0.41829013 </v>
   <v>       0.25902172       0.28348796       0.42807002 </v>
   <v>       0.40846885       0.50125349       0.51390881 </v>
  </varray>
 </structure>
 <calculation>
  <scstep>
   <time name="dav">  233.74  235.87</time>
   <time name="total">  233.90  236.03</time>
   <energy>
    <i name="alphaZ">     61.02981932 </i>
    <i name="ewald">  36895.15431879 </i>
    <i name="hartreedc"> -48026.49083528 </i>
    <i name="XCdc">   1156.69105915 </i>
    <i name="pawpsdc">  31150.94305953 </i>
    <i name="pawaedc"> -31218.18085093 </i>
    <i name="eentropy">     -0.00000000 </i>
    <i name="bandstr">  -4109.95383281 </i>
    <i name="atom">  13458.14440185 </i>
    <i name="e_fr_energy">   -632.66286038 </i>
    <i name="e_wo_entrp">   -632.66286038 </i>
    <i name="e_0_energy">   -632.66286038 </i>
   </energy>
  </scstep>
  <scstep>
   <time name="dav">  272.12  274.70</time>
   <time name="total">  272.13  274.72</time>
   <energy>
    <i name="e_fr_energy">   -633.88596187 </i>
    <i name="e_wo_entrp">   -633.88596187 </i>
    <i name="e_0_energy">   -633.88596187 </i>
   </energy>
  </scstep>
  <scstep>
   <time name="dav">  301.88  304.48</time>
   <time name="total">  301.90  304.50</time>
   <energy>
    <i name="e_fr_energy">   -633.91219182 </i>
    <i name="e_wo_entrp">   -633.91219182 </i>
    <i name="e_0_energy">   -633.91219182 </i>
   </energy>
  </scstep>
  <scstep>
   <time name="dav">  269.06  271.29</time>
   <time name="total">  269.08  271.31</time>
   <energy>
    <i name="e_fr_energy">   -633.91262630 </i>
    <i name="e_wo_entrp">   -633.91262630 </i>
    <i name="e_0_energy">   -633.91262630 </i>
   </energy>
  </scstep>
  <scstep>
   <time name="dav">  263.66  265.95</time>
   <time name="total">  263.68  265.96</time>
   <energy>
    <i name="e_fr_energy">   -633.91264158 </i>
    <i name="e_wo_entrp">   -633.91264158 </i>
    <i name="e_0_energy">   -633.91264158 </i>
   </energy>
  </scstep>
  <scstep>
   <time name="dav">  207.66  209.60</time>
   <time name="total">  207.68  209.61</time>
   <energy>
    <i name="alphaZ">     61.02981932 </i>
    <i name="ewald">  36895.15431879 </i>
    <i name="hartreedc"> -48026.49083528 </i>
    <i name="XCdc">   1156.69105915 </i>
    <i name="pawpsdc">  31150.94305953 </i>
    <i name="pawaedc"> -31218.18085093 </i>
    <i name="eentropy">     -0.00000000 </i>
    <i name="bandstr">  -4111.20361437 </i>
    <i name="atom">  13458.14440185 </i>
    <i name="e_fr_energy">   -633.91264194 </i>
    <i name="e_wo_entrp">   -633.91264194 </i>
    <i name="e_0_energy">   -633.91264194 </i>
   </energy>
  </scstep>
  <structure>
   <crystal>
    <varray name="basis" >
     <v>      20.65242995       0.30900208       0.00000000 </v>
     <v>     -10.05308337      17.54416630       0.00000000 </v>
     <v>       0.00000000       0.00000000      20.00000000 </v>
    </varray>
    <i name="volume">   7308.72178081 </i>
    <varray name="rec_basis" >
     <v>       0.04800885       0.02750983       0.00000000 </v>
     <v>      -0.00084557       0.05651448       0.00000000 </v>
     <v>       0.00000000       0.00000000       0.05000000 </v>
    </varray>
   </crystal>
   <varray name="positions" >
    <v>       0.03514748       0.82292225       0.43018725 </v>
    <v>       0.17393776       0.70137125       0.56563635 </v>
    <v>       0.49422891       0.84531851       0.56215542 </v>
    <v>       0.45183521       0.82775896       0.62324945 </v>
    <v>       0.14445038       0.62161850       0.58632207 </v>
    <v>       0.14410344       0.48897171       0.59182761 </v>
    <v>       0.17350563       0.60162054       0.64401575 </v>
    <v>       0.03394694       0.94449437       0.40588958 </v>
    <v>       0.14532823       0.82682962       0.45660525 </v>
    <v>       0.07405293       0.90032981       0.41274495 </v>
    <v>       0.18470736       0.90114835       0.42726118 </v>
    <v>       0.18203703       0.79219903       0.49486482 </v>
    <v>       0.28253759       0.80942739       0.55516136 </v>
    <v>       0.36375624       0.84394991       0.56598857 </v>
    <v>       0.41495376       0.88183100       0.51447690 </v>
    <v>       0.09679006       0.49945490       0.54736548 </v>
    <v>       0.54341111       0.81269986       0.54757378 </v>
    <v>       0.28471993       0.44129361       0.55900164 </v>
    <v>       0.17521313       0.43864851       0.57392659 </v>
    <v>       0.62741594       0.79902271       0.48528437 </v>
    <v>       0.54203502       0.70045957       0.54662400 </v>
    <v>       0.18268809       0.35501243       0.50341029 </v>
    <v>       0.80323179       0.94524636       0.42298166 </v>
    <v>       0.03533262       0.17764181       0.44195025 </v>
    <v>       0.36559296       0.48984954       0.56728239 </v>
    <v>       0.49495805       0.61850492       0.56149444 </v>
    <v>       0.39637598       0.53618880       0.62601206 </v>
    <v>       0.03378752       0.05601291       0.41099536 </v>
    <v>       0.92508907       0.94605884       0.40743755 </v>
    <v>       0.69939702       0.83413573       0.45092923 </v>
    <v>       0.84289905       0.90533965       0.41343264 </v>
    <v>       0.73667249       0.79266443       0.43092392 </v>
    <v>       0.14572509       0.28305783       0.46696975 </v>
    <v>       0.07409243       0.13940047       0.42191057 </v>
    <v>       0.18511617       0.24767621       0.43749811 </v>
    <v>       0.47498838       0.56320048       0.51126466 </v>
    <v>       0.97493261       0.79120665       0.42794966 </v>
    <v>       0.51102750       0.79366981       0.68056803 </v>
    <v>       0.43768718       0.79508911       0.71935664 </v>
    <v>       0.22260404       0.70197923       0.69121295 </v>
    <v>       0.22524578       0.62873725       0.73257977 </v>
    <v>       0.28864348       0.91780226       0.44175660 </v>
    <v>       0.28143701       0.99243201       0.40206953 </v>
    <v>       0.40288437       0.90845906       0.47247912 </v>
    <v>       0.06166173       0.45623065       0.51159097 </v>
    <v>       0.82979838       0.00638130       0.41680866 </v>
    <v>       0.97508878       0.14961044       0.44122745 </v>
    <v>       0.30839330       0.48588156       0.68716231 </v>
    <v>       0.38710449       0.55830114       0.72213918 </v>
    <v>       0.65221546       0.68719670       0.44928388 </v>
    <v>       0.73551064       0.69278839       0.41836963 </v>
    <v>       0.28984712       0.33514967       0.45003056 </v>
    <v>       0.28165472       0.25203613       0.41104262 </v>
    <v>       0.50833322       0.57189991       0.46651642 </v>
    <v>       0.07120233       0.78857453       0.45405422 </v>
    <v>       0.14077306       0.72167342       0.51891908 </v>
    <v>       0.24087471       0.74853705       0.59256187 </v>
    <v>       0.38497830       0.82231187       0.62127218 </v>
    <v>       0.47691828       0.81670516       0.68306891 </v>
    <v>       0.17731944       0.53766392       0.64189067 </v>
    <v>       0.19801493       0.64527731       0.70010723 </v>
    <v>       0.95963668       0.90453152       0.40451275 </v>
    <v>       0.07395153       0.02018787       0.40762884 </v>
    <v>       0.14760763       0.93773678       0.40941164 </v>
    <v>       0.25860927       0.93757435       0.41640455 </v>
    <v>       0.25638499       0.83344021       0.50464074 </v>
    <v>       0.47773267       0.87782526       0.51199995 </v>
    <v>       0.10169046       0.56771745       0.54323670 </v>
    <v>       0.59813719       0.84332566       0.50306301 </v>
    <v>       0.52113452       0.74543334       0.57820989 </v>
    <v>       0.24354758       0.46019629       0.59844671 </v>
    <v>       0.14117695       0.38409237       0.52867972 </v>
    <v>       0.25732801       0.38963709       0.50998889 </v>
    <v>       0.73331383       0.90947387       0.44335894 </v>
    <v>       0.07151774       0.24758104       0.46583121 </v>
    <v>       0.45829074       0.60211813       0.61949122 </v>
    <v>       0.36477500       0.51621441       0.68769392 </v>
    <v>       0.95935160       0.02196700       0.41104716 </v>
    <v>       0.59398104       0.72360457       0.49866374 </v>
    <v>       0.80922829       0.83014736       0.41557087 </v>
    <v>       0.70278542       0.71644135       0.42691753 </v>
    <v>       0.14760865       0.17466835       0.41829013 </v>
    <v>       0.25902172       0.28348796       0.42807002 </v>
    <v>       0.40846885       0.50125349       0.51390881 </v>
   </varray>
  </structure>
  <varray name="forces" >
   <v>      -0.00469277       0.00318810      -0.00020738 </v>
   <v>      -0.00615575      -0.00342435      -0.00266983 </v>
   <v>       0.00334750      -0.00047730      -0.00124548 </v>
   <v>      -0.00364208       0.00139392       0.00170872 </v>
   <v>       0.00240316      -0.00090728       0.00023082 </v>
   <v>      -0.00266181       0.00172994      -0.00125679 </v>
   <v>       0.00398632       0.00053332      -0.00125752 </v>
   <v>      -0.00441346      -0.00070672       0.00046631 </v>
   <v>       0.00261203       0.00275093      -0.00272846 </v>
   <v>       0.00457062      -0.00028678      -0.00071654 </v>
   <v>       0.00053889       0.00222339       0.00020055 </v>
   <v>       0.00351647       0.00524638      -0.00245379 </v>
   <v>      -0.00498802      -0.00495232       0.00035567 </v>
   <v>       0.00158334      -0.00223757       0.00341122 </v>
   <v>       0.00415081       0.00151745      -0.00063215 </v>
   <v>      -0.00307562      -0.00073190      -0.00616155 </v>
   <v>      -0.00429365       0.00470919       0.00173964 </v>
   <v>       0.00039910       0.00002538       0.00165614 </v>
   <v>      -0.00331501       0.00249502      -0.00021103 </v>
   <v>       0.00331392       0.00467242      -0.00046407 </v>
   <v>       0.00139518      -0.00652497       0.00050649 </v>
   <v>      -0.00185549       0.00228665      -0.00122653 </v>
   <v>       0.00097969      -0.00252159      -0.00220218 </v>
   <v>       0.00421552      -0.00118367      -0.00053715 </v>
   <v>       0.00679797       0.00134905       0.00338989 </v>
   <v>      -0.00309284       0.00088959       0.00904380 </v>
   <v>      -0.00348919      -0.00181153       0.00470037 </v>
   <v>      -0.00151156       0.00375019       0.00072417 </v>
   <v>       0.00358877      -0.00336418       0.00389424 </v>
   <v>       0.00014693      -0.00423930       0.00087670 </v>
   <v>       0.00277970       0.00388180      -0.00014031 </v>
   <v>       0.00016670       0.00389031      -0.00010516 </v>
   <v>      -0.00147070       0.00173879       0.00104878 </v>
   <v>      -0.00232411      -0.00234000      -0.00333643 </v>
   <v>       0.00059449      -0.00187732      -0.00063514 </v>
   <v>       0.00048354       0.00119270       0.00509570 </v>
   <v>       0.00051479       0.00046683       0.00259313 </v>
   <v>      -0.00337763       0.00062175      -0.00223666 </v>
   <v>      -0.00060044      -0.00068377      -0.00111052 </v>
   <v>      -0.00060142      -0.00048539      -0.00070072 </v>
   <v>      -0.00151200      -0.00271917       0.00033316 </v>
   <v>       0.00263529      -0.00265358       0.00417535 </v>
   <v>       0.00019007      -0.00418899       0.00052278 </v>
   <v>      -0.00508782      -0.00224570      -0.00635635 </v>
   <v>       0.00024600      -0.00050524      -0.00062671 </v>
   <v>       0.00103435      -0.00002364      -0.00368358 </v>
   <v>      -0.00448815      -0.00043283      -0.00532943 </v>
   <v>      -0.00275387       0.00268774       0.00430649 </v>
   <v>      -0.00257495       0.00623205       0.00431077 </v>
   <v>       0.00555415       0.00013934       0.00084742 </v>
   <v>       0.00021745      -0.00011452       0.00449014 </v>
   <v>      -0.00038372       0.00347506       0.00146332 </v>
   <v>       0.00275431      -0.00035686       0.00144129 </v>
   <v>       0.00239321       0.00176307      -0.00153637 </v>
   <v>      -0.00451788      -0.00516684      -0.00048842 </v>
   <v>       0.00228450      -0.00383715       0.00194126 </v>
   <v>      -0.00226795       0.00629995      -0.00104088 </v>
   <v>      -0.00129677      -0.00098734       0.00244832 </v>
   <v>       0.00351004      -0.00079671      -0.00096643 </v>
   <v>       0.00165508      -0.00156058      -0.00239458 </v>
   <v>      -0.00628142      -0.00513710      -0.00515913 </v>
   <v>       0.00010063       0.00651278       0.00116605 </v>
   <v>      -0.00234981      -0.00328656       0.00264914 </v>
   <v>       0.00461812      -0.00491379      -0.00011100 </v>
   <v>      -0.00233587       0.00548649      -0.00142665 </v>
   <v>      -0.00608179      -0.00364538      -0.00236290 </v>
   <v>       0.00254256      -0.00173146      -0.00122024 </v>
   <v>       0.00191645      -0.00473486      -0.00072641 </v>
   <v>      -0.00381505      -0.00002669      -0.00366358 </v>
   <v>      -0.00363238       0.00347915      -0.00041915 </v>
   <v>       0.00516063      -0.00031450      -0.00291417 </v>
   <v>       0.00369855      -0.00373235      -0.00159418 </v>
   <v>       0.00292960       0.00111823      -0.00039432 </v>
   <v>       0.00173236      -0.00395562       0.00037241 </v>
   <v>       0.00048528       0.00099633      -0.00018491 </v>
   <v>       0.00219966       0.00061870      -0.00227210 </v>
   <v>       0.00261724       0.00109188      -0.00234750 </v>
   <v>       0.00144485       0.00165806       0.00004656 </v>
   <v>      -0.00272857      -0.00310658       0.00437487 </v>
   <v>      -0.00196014      -0.00386611       0.00012908 </v>
   <v>      -0.00658851       0.00363602       0.00179631 </v>
   <v>       0.00341545       0.00340430       0.00081201 </v>
   <v>       0.00442459       0.00144333      -0.00205141 </v>
   <v>       0.00437234       0.00220051       0.00223669 </v>
  </varray>
  <varray name="stress" >
   <v>      -0.00126239       0.00058008       0.02366495 </v>
   <v>       0.00058007      -0.01476689      -0.01031787 </v>
   <v>       0.02366495      -0.01031787      -0.28433788 </v>
  </varray>
  <energy>
   <i name="e_fr_energy">   -635.74472434 </i>
   <i name="e_wo_entrp">   -635.74472434 </i>
   <i name="e_0_energy">     -0.00000000 </i>
  </energy>
  <time name="totalsc"> 1740.84 1756.71</time>
  <eigenvalues>
   <array>
    <dimension dim="1">band</dimension>
    <dimension dim="2">kpoint</dimension>
    <dimension dim="3">spin</dimension>
    <field>eigene</field>
    <field>occ</field>
    <set>
     <set comment="spin 1">
      <set comment="kpoint 1">
       <r>  -25.5535    1.0000 </r>
       <r>  -25.4771    1.0000 </r>
       <r>  -25.4321    1.0000 </r>
       <r>  -25.3519    1.0000 </r>
       <r>  -24.6970    1.0000 </r>
       <r>  -24.6398    1.0000 </r>
       <r>  -24.4985    1.0000 </r>
       <r>  -24.4826    1.0000 </r>
       <r>  -24.4119    1.0000 </r>
       <r>  -24.3226    1.0000 </r>
       <r>  -23.0940    1.0000 </r>
       <r>  -23.0583    1.0000 </r>
       <r>  -22.9517    1.0000 </r>
       <r>  -22.9029    1.0000 </r>
       <r>  -22.8707    1.0000 </r>
       <r>  -22.8294    1.0000 </r>
       <r>  -22.6556    1.0000 </r>
       <r>  -22.5928    1.0000 </r>
       <r>  -22.5417    1.0000 </r>
       <r>  -22.3899    1.0000 </r>
       <r>  -22.3440    1.0000 </r>
       <r>  -22.3103    1.0000 </r>
       <r>  -22.1685    1.0000 </r>
       <r>  -22.1638    1.0000 </r>
       <r>  -21.7687    1.0000 </r>
       <r>  -21.7526    1.0000 </r>
       <r>  -21.7010    1.0000 </r>
       <r>  -21.6483    1.0000 </r>
       <r>  -21.5220    1.0000 </r>
       <r>  -21.4696    1.0000 </r>
       <r>  -19.1148    1.0000 </r>
       <r>  -19.0620    1.0000 </r>
       <r>  -18.9521    1.0000 </r>
       <r>  -18.9049    1.0000 </r>
       <r>  -18.7862    1.0000 </r>
       <r>  -18.7384    1.0000 </r>
       <r>  -17.9605    1.0000 </r>
       <r>  -17.9032    1.0000 </r>
       <r>  -17.6826    1.0000 </r>
       <r>  -17.6063    1.0000 </r>
       <r>  -17.4825    1.0000 </r>
       <r>  -16.7759    1.0000 </r>
       <r>  -16.4028    1.0000 </r>
       <r>  -16.1764    1.0000 </r>
       <r>  -16.1526    1.0000 </r>
       <r>  -15.9039    1.0000 </r>
       <r>  -15.8027    1.0000 </r>
       <r>  -15.7615    1.0000 </r>
       <r>  -15.6157    1.0000 </r>
       <r>  -15.6099    1.0000 </r>
       <r>  -15.5072    1.0000 </r>
       <r>  -15.2832    1.0000 </r>
       <r>  -15.0480    1.0000 </r>
       <r>  -14.9864    1.0000 </r>
       <r>  -14.8587    1.0000 </r>
       <r>  -14.7671    1.0000 </r>
       <r>  -13.9835    1.0000 </r>
       <r>  -13.9218    1.0000 </r>
       <r>  -13.8048    1.0000 </r>
       <r>  -13.5558    1.0000 </r>
       <r>  -13.4568    1.0000 </r>
       <r>  -13.3760    1.0000 </r>
       <r>  -13.3111    1.0000 </r>
       <r>  -13.2450    1.0000 </r>
       <r>  -13.1875    1.0000 </r>
       <r>  -12.9717    1.0000 </r>
       <r>  -12.9174    1.0000 </r>
       <r>  -12.7374    1.0000 </r>
       <r>  -12.6926    1.0000 </r>
       <r>  -12.5557    1.0000 </r>
       <r>  -12.4238    1.0000 </r>
       <r>  -12.3326    1.0000 </r>
       <r>  -12.3021    1.0000 </r>
       <r>  -12.1891    1.0000 </r>
       <r>  -12.1196    1.0000 </r>
       <r>  -11.9017    1.0000 </r>
       <r>  -11.8045    1.0000 </r>
       <r>  -11.7531    1.0000 </r>
       <r>  -11.5470    1.0000 </r>
       <r>  -11.5153    1.0000 </r>
       <r>  -11.4856    1.0000 </r>
       <r>  -11.4481    1.0000 </r>
       <r>  -11.4261    1.0000 </r>
       <r>  -11.3589    1.0000 </r>
       <r>  -11.2795    1.0000 </r>
       <r>  -11.2321    1.0000 </r>
       <r>  -11.2063    1.0000 </r>
       <r>  -11.1636    1.0000 </r>
       <r>  -11.1326    1.0000 </r>
       <r>  -10.8916    1.0000 </r>
       <r>  -10.8395    1.0000 </r>
       <r>  -10.7004    1.0000 </r>
       <r>  -10.6666    1.0000 </r>
       <r>  -10.6483    1.0000 </r>
       <r>  -10.4982    1.0000 </r>
       <r>  -10.4348    1.0000 </r>
       <r>  -10.3583    1.0000 </r>
       <r>  -10.0939    1.0000 </r>
       <r>  -10.0751    1.0000 </r>
       <r>   -9.9946    1.0000 </r>
       <r>   -9.8259    1.0000 </r>
       <r>   -9.5003    1.0000 </r>
       <r>   -9.4216    1.0000 </r>
       <r>   -9.3612    1.0000 </r>
       <r>   -9.2875    1.0000 </r>
       <r>   -9.2175    1.0000 </r>
       <r>   -9.0280    1.0000 </r>
       <r>   -8.9805    1.0000 </r>
       <r>   -8.8735    1.0000 </r>
       <r>   -8.7017    1.0000 </r>
       <r>   -8.6298    1.0000 </r>
       <r>   -8.6177    1.0000 </r>
       <r>   -8.5418    1.0000 </r>
       <r>   -8.5182    1.0000 </r>
       <r>   -8.4935    1.0000 </r>
       <r>   -8.3519    1.0000 </r>
       <r>   -8.3305    1.0000 </r>
       <r>   -8.2643    1.0000 </r>
       <r>   -8.2129    1.0000 </r>
       <r>   -8.0251    1.0000 </r>
       <r>   -7.9882    1.0000 </r>
       <r>   -7.8968    1.0000 </r>
       <r>   -7.6924    1.0000 </r>
       <r>   -7.6625    1.0000 </r>
       <r>   -7.1567    1.0000 </r>
       <r>   -7.0756    1.0000 </r>
       <r>   -7.0498    1.0000 </r>
       <r>   -6.9663    1.0000 </r>
       <r>   -6.8534    1.0000 </r>
       <r>   -6.8155    1.0000 </r>
       <r>   -6.7817    1.0000 </r>
       <r>   -6.7257    1.0000 </r>
       <r>   -6.6533    1.0000 </r>
       <r>   -6.6404    1.0000 </r>
       <r>   -6.5570    1.0000 </r>
       <r>   -6.5279    1.0000 </r>
       <r>   -6.2742    1.0000 </r>
       <r>   -6.1706    1.0000 </r>
       <r>   -6.0604    1.0000 </r>
       <r>   -5.9964    1.0000 </r>
       <r>   -5.9470    1.0000 </r>
       <r>   -5.8377    1.0000 </r>
       <r>   -5.7932    1.0000 </r>
       <r>   -5.7405    1.0000 </r>
       <r>   -5.6662    1.0000 </r>
       <r>   -5.5696    1.0000 </r>
       <r>   -5.4978    1.0000 </r>
       <r>   -5.3915    1.0000 </r>
       <r>   -5.3298    1.0000 </r>
       <r>   -5.3059    1.0000 </r>
       <r>   -5.2697    1.0000 </r>
       <r>   -5.2089    1.0000 </r>
       <r>   -5.1546    1.0000 </r>
       <r>   -5.1151    1.0000 </r>
       <r>   -5.0717    1.0000 </r>
       <r>   -4.9855    1.0000 </r>
       <r>   -3.2904    0.0000 </r>
       <r>   -3.2454    0.0000 </r>
       <r>   -3.0292    0.0000 </r>
       <r>   -2.9834    0.0000 </r>
       <r>   -2.9578    0.0000 </r>
       <r>   -2.1436    0.0000 </r>
       <r>   -1.8902    0.0000 </r>
       <r>   -1.8471    0.0000 </r>
       <r>   -1.7932    0.0000 </r>
       <r>   -1.4379    0.0000 </r>
       <r>   -1.4057    0.0000 </r>
       <r>   -1.3031    0.0000 </r>
       <r>   -1.2120    0.0000 </r>
       <r>   -1.1614    0.0000 </r>
       <r>   -1.0412    0.0000 </r>
       <r>   -0.5230    0.0000 </r>
       <r>   -0.3685    0.0000 </r>
       <r>   -0.3303    0.0000 </r>
       <r>   -0.2935    0.0000 </r>
       <r>   -0.0706    0.0000 </r>
       <r>    0.1098    0.0000 </r>
       <r>    0.2328    0.0000 </r>
       <r>    0.2709    0.0000 </r>
       <r>    0.3256    0.0000 </r>
       <r>    0.3629    0.0000 </r>
       <r>    0.3830    0.0000 </r>
       <r>    0.4129    0.0000 </r>
       <r>    0.5398    0.0000 </r>
       <r>    0.6170    0.0000 </r>
       <r>    0.7425    0.0000 </r>
       <r>    0.8100    0.0000 </r>
       <r>    0.8472    0.0000 </r>
       <r>    0.8521    0.0000 </r>
       <r>    0.9641    0.0000 </r>
       <r>    1.0318    0.0000 </r>
       <r>    1.0661    0.0000 </r>
       <r>    1.1322    0.0000 </r>
       <r>    1.1865    0.0000 </r>
       <r>    1.2028    0.0000 </r>
       <r>    1.2468    0.0000 </r>
       <r>    1.2504    0.0000 </r>
       <r>    1.2801    0.0000 </r>
       <r>    1.3219    0.0000 </r>
       <r>    1.3322    0.0000 </r>
       <r>    1.3603    0.0000 </r>
       <r>    1.3743    0.0000 </r>
       <r>    1.3819    0.0000 </r>
       <r>    1.4084    0.0000 </r>
       <r>    1.4687    0.0000 </r>
       <r>    1.4978    0.0000 </r>
       <r>    1.5004    0.0000 </r>
       <r>    1.5230    0.0000 </r>
      </set>
      <set comment="kpoint 2">
       <r>  -25.5535    1.0000 </r>
       <r>  -25.4771    1.0000 </r>
       <r>  -25.4322    1.0000 </r>
       <r>  -25.3519    1.0000 </r>
       <r>  -24.6970    1.0000 </r>
       <r>  -24.6398    1.0000 </r>
       <r>  -24.4985    1.0000 </r>
       <r>  -24.4826    1.0000 </r>
       <r>  -24.4117    1.0000 </r>
       <r>  -24.3227    1.0000 </r>
       <r>  -23.0940    1.0000 </r>
       <r>  -23.0583    1.0000 </r>
       <r>  -22.9517    1.0000 </r>
       <r>  -22.9029    1.0000 </r>
       <r>  -22.8707    1.0000 </r>
       <r>  -22.8294    1.0000 </r>
       <r>  -22.6556    1.0000 </r>
       <r>  -22.5927    1.0000 </r>
       <r>  -22.5417    1.0000 </r>
       <r>  -22.3907    1.0000 </r>
       <r>  -22.3444    1.0000 </r>
       <r>  -22.3091    1.0000 </r>
       <r>  -22.1685    1.0000 </r>
       <r>  -22.1639    1.0000 </r>
       <r>  -21.7690    1.0000 </r>
       <r>  -21.7524    1.0000 </r>
       <r>  -21.7010    1.0000 </r>
       <r>  -21.6481    1.0000 </r>
       <r>  -21.5222    1.0000 </r>
       <r>  -21.4694    1.0000 </r>
       <r>  -19.1148    1.0000 </r>
       <r>  -19.0620    1.0000 </r>
       <r>  -18.9523    1.0000 </r>
       <r>  -18.9047    1.0000 </r>
       <r>  -18.7862    1.0000 </r>
       <r>  -18.7383    1.0000 </r>
       <r>  -17.9604    1.0000 </r>
       <r>  -17.9033    1.0000 </r>
       <r>  -17.6828    1.0000 </r>
       <r>  -17.6082    1.0000 </r>
       <r>  -17.4799    1.0000 </r>
       <r>  -16.7771    1.0000 </r>
       <r>  -16.4028    1.0000 </r>
       <r>  -16.1765    1.0000 </r>
       <r>  -16.1517    1.0000 </r>
       <r>  -15.9038    1.0000 </r>
       <r>  -15.8029    1.0000 </r>
       <r>  -15.7611    1.0000 </r>
       <r>  -15.6197    1.0000 </r>
       <r>  -15.6063    1.0000 </r>
       <r>  -15.5066    1.0000 </r>
       <r>  -15.2845    1.0000 </r>
       <r>  -15.0474    1.0000 </r>
       <r>  -14.9866    1.0000 </r>
       <r>  -14.8585    1.0000 </r>
       <r>  -14.7672    1.0000 </r>
       <r>  -13.9835    1.0000 </r>
       <r>  -13.9221    1.0000 </r>
       <r>  -13.8040    1.0000 </r>
       <r>  -13.5559    1.0000 </r>
       <r>  -13.4567    1.0000 </r>
       <r>  -13.3763    1.0000 </r>
       <r>  -13.3111    1.0000 </r>
       <r>  -13.2459    1.0000 </r>
       <r>  -13.1867    1.0000 </r>
       <r>  -12.9717    1.0000 </r>
       <r>  -12.9173    1.0000 </r>
       <r>  -12.7374    1.0000 </r>
       <r>  -12.6929    1.0000 </r>
       <r>  -12.5553    1.0000 </r>
       <r>  -12.4238    1.0000 </r>
       <r>  -12.3326    1.0000 </r>
       <r>  -12.3022    1.0000 </r>
       <r>  -12.1892    1.0000 </r>
       <r>  -12.1196    1.0000 </r>
       <r>  -11.9017    1.0000 </r>
       <r>  -11.8046    1.0000 </r>
       <r>  -11.7531    1.0000 </r>
       <r>  -11.5474    1.0000 </r>
       <r>  -11.5150    1.0000 </r>
       <r>  -11.4855    1.0000 </r>
       <r>  -11.4480    1.0000 </r>
       <r>  -11.4260    1.0000 </r>
       <r>  -11.3590    1.0000 </r>
       <r>  -11.2796    1.0000 </r>
       <r>  -11.2321    1.0000 </r>
       <r>  -11.2063    1.0000 </r>
       <r>  -11.1635    1.0000 </r>
       <r>  -11.1327    1.0000 </r>
       <r>  -10.8917    1.0000 </r>
       <r>  -10.8392    1.0000 </r>
       <r>  -10.7006    1.0000 </r>
       <r>  -10.6664    1.0000 </r>
       <r>  -10.6482    1.0000 </r>
       <r>  -10.4984    1.0000 </r>
       <r>  -10.4354    1.0000 </r>
       <r>  -10.3576    1.0000 </r>
       <r>  -10.0942    1.0000 </r>
       <r>  -10.0756    1.0000 </r>
       <r>   -9.9945    1.0000 </r>
       <r>   -9.8255    1.0000 </r>
       <r>   -9.5006    1.0000 </r>
       <r>   -9.4219    1.0000 </r>
       <r>   -9.3608    1.0000 </r>
       <r>   -9.2876    1.0000 </r>
       <r>   -9.2175    1.0000 </r>
       <r>   -9.0280    1.0000 </r>
       <r>   -8.9803    1.0000 </r>
       <r>   -8.8735    1.0000 </r>
       <r>   -8.7017    1.0000 </r>
       <r>   -8.6297    1.0000 </r>
       <r>   -8.6176    1.0000 </r>
       <r>   -8.5419    1.0000 </r>
       <r>   -8.5182    1.0000 </r>
       <r>   -8.4936    1.0000 </r>
       <r>   -8.3519    1.0000 </r>
       <r>   -8.3305    1.0000 </r>
       <r>   -8.2643    1.0000 </r>
       <r>   -8.2129    1.0000 </r>
       <r>   -8.0253    1.0000 </r>
       <r>   -7.9894    1.0000 </r>
       <r>   -7.8953    1.0000 </r>
       <r>   -7.6926    1.0000 </r>
       <r>   -7.6624    1.0000 </r>
       <r>   -7.1567    1.0000 </r>
       <r>   -7.0763    1.0000 </r>
       <r>   -7.0495    1.0000 </r>
       <r>   -6.9660    1.0000 </r>
       <r>   -6.8534    1.0000 </r>
       <r>   -6.8155    1.0000 </r>
       <r>   -6.7817    1.0000 </r>
       <r>   -6.7257    1.0000 </r>
       <r>   -6.6533    1.0000 </r>
       <r>   -6.6403    1.0000 </r>
       <r>   -6.5572    1.0000 </r>
       <r>   -6.5278    1.0000 </r>
       <r>   -6.2743    1.0000 </r>
       <r>   -6.1706    1.0000 </r>
       <r>   -6.0604    1.0000 </r>
       <r>   -5.9964    1.0000 </r>
       <r>   -5.9470    1.0000 </r>
       <r>   -5.8377    1.0000 </r>
       <r>   -5.7931    1.0000 </r>
       <r>   -5.7406    1.0000 </r>
       <r>   -5.6662    1.0000 </r>
       <r>   -5.5698    1.0000 </r>
       <r>   -5.4977    1.0000 </r>
       <r>   -5.3915    1.0000 </r>
       <r>   -5.3298    1.0000 </r>
       <r>   -5.3059    1.0000 </r>
       <r>   -5.2697    1.0000 </r>
       <r>   -5.2089    1.0000 </r>
       <r>   -5.1546    1.0000 </r>
       <r>   -5.1153    1.0000 </r>
       <r>   -5.0715    1.0000 </r>
       <r>   -4.9856    1.0000 </r>
       <r>   -3.2904    0.0000 </r>
       <r>   -3.2453    0.0000 </r>
       <r>   -3.0309    0.0000 </r>
       <r>   -2.9857    0.0000 </r>
       <r>   -2.9533    0.0000 </r>
       <r>   -2.1461    0.0000 </r>
       <r>   -1.8883    0.0000 </r>
       <r>   -1.8471    0.0000 </r>
       <r>   -1.7929    0.0000 </r>
       <r>   -1.4381    0.0000 </r>
       <r>   -1.4057    0.0000 </r>
       <r>   -1.3029    0.0000 </r>
       <r>   -1.2120    0.0000 </r>
       <r>   -1.1614    0.0000 </r>
       <r>   -1.0410    0.0000 </r>
       <r>   -0.5257    0.0000 </r>
       <r>   -0.3685    0.0000 </r>
       <r>   -0.3287    0.0000 </r>
       <r>   -0.2931    0.0000 </r>
       <r>   -0.0705    0.0000 </r>
       <r>    0.1094    0.0000 </r>
       <r>    0.2328    0.0000 </r>
       <r>    0.2708    0.0000 </r>
       <r>    0.3258    0.0000 </r>
       <r>    0.3631    0.0000 </r>
       <r>    0.3826    0.0000 </r>
       <r>    0.4133    0.0000 </r>
       <r>    0.5402    0.0000 </r>
       <r>    0.6175    0.0000 </r>
       <r>    0.7425    0.0000 </r>
       <r>    0.8105    0.0000 </r>
       <r>    0.8473    0.0000 </r>
       <r>    0.8530    0.0000 </r>
       <r>    0.9632    0.0000 </r>
       <r>    1.0312    0.0000 </r>
       <r>    1.0657    0.0000 </r>
       <r>    1.1318    0.0000 </r>
       <r>    1.1861    0.0000 </r>
       <r>    1.2010    0.0000 </r>
       <r>    1.2432    0.0000 </r>
       <r>    1.2533    0.0000 </r>
       <r>    1.2810    0.0000 </r>
       <r>    1.3211    0.0000 </r>
       <r>    1.3307    0.0000 </r>
       <r>    1.3574    0.0000 </r>
       <r>    1.3765    0.0000 </r>
       <r>    1.3837    0.0000 </r>
       <r>    1.4095    0.0000 </r>
       <r>    1.4678    0.0000 </r>
       <r>    1.4987    0.0000 </r>
       <r>    1.5027    0.0000 </r>
       <r>    1.5229    0.0000 </r>
      </set>
      <set comment="kpoint 3">
       <r>  -25.5535    1.0000 </r>
       <r>  -25.4771    1.0000 </r>
       <r>  -25.4322    1.0000 </r>
       <r>  -25.3519    1.0000 </r>
       <r>  -24.6970    1.0000 </r>
       <r>  -24.6399    1.0000 </r>
       <r>  -24.4988    1.0000 </r>
       <r>  -24.4826    1.0000 </r>
       <r>  -24.4111    1.0000 </r>
       <r>  -24.3231    1.0000 </r>
       <r>  -23.0940    1.0000 </r>
       <r>  -23.0583    1.0000 </r>
       <r>  -22.9517    1.0000 </r>
       <r>  -22.9029    1.0000 </r>
       <r>  -22.8707    1.0000 </r>
       <r>  -22.8294    1.0000 </r>
       <r>  -22.6556    1.0000 </r>
       <r>  -22.5923    1.0000 </r>
       <r>  -22.5417    1.0000 </r>
       <r>  -22.3928    1.0000 </r>
       <r>  -22.3454    1.0000 </r>
       <r>  -22.3059    1.0000 </r>
       <r>  -22.1688    1.0000 </r>
       <r>  -22.1642    1.0000 </r>
       <r>  -21.7697    1.0000 </r>
       <r>  -21.7521    1.0000 </r>
       <r>  -21.7009    1.0000 </r>
       <r>  -21.6475    1.0000 </r>
       <r>  -21.5229    1.0000 </r>
       <r>  -21.4691    1.0000 </r>
       <r>  -19.1149    1.0000 </r>
       <r>  -19.0619    1.0000 </r>
       <r>  -18.9529    1.0000 </r>
       <r>  -18.9042    1.0000 </r>
       <r>  -18.7863    1.0000 </r>
       <r>  -18.7381    1.0000 </r>
       <r>  -17.9600    1.0000 </r>
       <r>  -17.9033    1.0000 </r>
       <r>  -17.6835    1.0000 </r>
       <r>  -17.6136    1.0000 </r>
       <r>  -17.4725    1.0000 </r>
       <r>  -16.7804    1.0000 </r>
       <r>  -16.4030    1.0000 </r>
       <r>  -16.1768    1.0000 </r>
       <r>  -16.1491    1.0000 </r>
       <r>  -15.9032    1.0000 </r>
       <r>  -15.8033    1.0000 </r>
       <r>  -15.7599    1.0000 </r>
       <r>  -15.6261    1.0000 </r>
       <r>  -15.6012    1.0000 </r>
       <r>  -15.5049    1.0000 </r>
       <r>  -15.2884    1.0000 </r>
       <r>  -15.0456    1.0000 </r>
       <r>  -14.9871    1.0000 </r>
       <r>  -14.8578    1.0000 </r>
       <r>  -14.7675    1.0000 </r>
       <r>  -13.9837    1.0000 </r>
       <r>  -13.9233    1.0000 </r>
       <r>  -13.8016    1.0000 </r>
       <r>  -13.5563    1.0000 </r>
       <r>  -13.4566    1.0000 </r>
       <r>  -13.3770    1.0000 </r>
       <r>  -13.3109    1.0000 </r>
       <r>  -13.2487    1.0000 </r>
       <r>  -13.1844    1.0000 </r>
       <r>  -12.9714    1.0000 </r>
       <r>  -12.9167    1.0000 </r>
       <r>  -12.7375    1.0000 </r>
       <r>  -12.6938    1.0000 </r>
       <r>  -12.5543    1.0000 </r>
       <r>  -12.4238    1.0000 </r>
       <r>  -12.3326    1.0000 </r>
       <r>  -12.3024    1.0000 </r>
       <r>  -12.1894    1.0000 </r>
       <r>  -12.1197    1.0000 </r>
       <r>  -11.9018    1.0000 </r>
       <r>  -11.8048    1.0000 </r>
       <r>  -11.7531    1.0000 </r>
       <r>  -11.5485    1.0000 </r>
       <r>  -11.5141    1.0000 </r>
       <r>  -11.4851    1.0000 </r>
       <r>  -11.4477    1.0000 </r>
       <r>  -11.4259    1.0000 </r>
       <r>  -11.3592    1.0000 </r>
       <r>  -11.2796    1.0000 </r>
       <r>  -11.2319    1.0000 </r>
       <r>  -11.2064    1.0000 </r>
       <r>  -11.1635    1.0000 </r>
       <r>  -11.1331    1.0000 </r>
       <r>  -10.8920    1.0000 </r>
       <r>  -10.8381    1.0000 </r>
       <r>  -10.7009    1.0000 </r>
       <r>  -10.6658    1.0000 </r>
       <r>  -10.6478    1.0000 </r>
       <r>  -10.4990    1.0000 </r>
       <r>  -10.4370    1.0000 </r>
       <r>  -10.3555    1.0000 </r>
       <r>  -10.0950    1.0000 </r>
       <r>  -10.0771    1.0000 </r>
       <r>   -9.9941    1.0000 </r>
       <r>   -9.8242    1.0000 </r>
       <r>   -9.5013    1.0000 </r>
       <r>   -9.4229    1.0000 </r>
       <r>   -9.3596    1.0000 </r>
       <r>   -9.2877    1.0000 </r>
       <r>   -9.2174    1.0000 </r>
       <r>   -9.0281    1.0000 </r>
       <r>   -8.9798    1.0000 </r>
       <r>   -8.8735    1.0000 </r>
       <r>   -8.7017    1.0000 </r>
       <r>   -8.6296    1.0000 </r>
       <r>   -8.6173    1.0000 </r>
       <r>   -8.5420    1.0000 </r>
       <r>   -8.5183    1.0000 </r>
       <r>   -8.4938    1.0000 </r>
       <r>   -8.3519    1.0000 </r>
       <r>   -8.3305    1.0000 </r>
       <r>   -8.2643    1.0000 </r>
       <r>   -8.2128    1.0000 </r>
       <r>   -8.0262    1.0000 </r>
       <r>   -7.9926    1.0000 </r>
       <r>   -7.8912    1.0000 </r>
       <r>   -7.6931    1.0000 </r>
       <r>   -7.6619    1.0000 </r>
       <r>   -7.1568    1.0000 </r>
       <r>   -7.0782    1.0000 </r>
       <r>   -7.0488    1.0000 </r>
       <r>   -6.9650    1.0000 </r>
       <r>   -6.8534    1.0000 </r>
       <r>   -6.8155    1.0000 </r>
       <r>   -6.7818    1.0000 </r>
       <r>   -6.7258    1.0000 </r>
       <r>   -6.6532    1.0000 </r>
       <r>   -6.6400    1.0000 </r>
       <r>   -6.5578    1.0000 </r>
       <r>   -6.5275    1.0000 </r>
[...]
       <r>   -25.3174    20.0231     8.0000 </r>
       <r>   -25.2175     0.0000     8.0000 </r>
       <r>   -25.1176     0.0000     8.0000 </r>
       <r>   -25.0177     0.0000     8.0000 </r>
       <r>   -24.9179     0.0000     8.0000 </r>
       <r>   -24.8180     0.0000     8.0000 </r>
       <r>   -24.7181     0.0313     8.0031 </r>
       <r>   -24.6182    40.0051    11.9990 </r>
       <r>   -24.5183     2.0584    12.2056 </r>
       <r>   -24.4184    20.6161    16.0592 </r>
       <r>   -24.3186    32.7155    19.9347 </r>
       <r>   -24.2187     0.0000    20.0000 </r>
       <r>   -24.1188     0.0000    20.0000 </r>
       <r>   -24.0189     0.0000    20.0000 </r>
       <r>   -23.9190     0.0000    20.0000 </r>
       <r>   -23.8191     0.0000    20.0000 </r>
       <r>   -23.7192     0.0000    20.0000 </r>
       <r>   -23.6194     0.0000    20.0000 </r>
       <r>   -23.5195     0.0000    20.0000 </r>
       <r>   -23.4196     0.0000    20.0000 </r>
       <r>   -23.3197     0.0000    20.0000 </r>
       <r>   -23.2198     0.0000    20.0000 </r>
       <r>   -23.1199     0.0025    20.0002 </r>
       <r>   -23.0201    40.0437    24.0000 </r>
       <r>   -22.9202    20.1656    26.0142 </r>
       <r>   -22.8203    38.3405    31.8296 </r>
       <r>   -22.7204     0.0000    32.0000 </r>
       <r>   -22.6205    19.3358    33.9314 </r>
       <r>   -22.5206    40.0510    38.0005 </r>
       <r>   -22.4207    13.3257    39.7480 </r>
       <r>   -22.3209    20.4919    41.8969 </r>
       <r>   -22.2210     5.0906    42.6252 </r>
       <r>   -22.1211    40.0445    48.0000 </r>
       <r>   -22.0212     0.0000    48.0000 </r>
       <r>   -21.9213     0.0000    48.0000 </r>
       <r>   -21.8214     3.3945    48.3391 </r>
       <r>   -21.7216    26.8484    51.9985 </r>
       <r>   -21.6217    26.6766    54.6651 </r>
       <r>   -21.5218    18.2985    57.8277 </r>
       <r>   -21.4219    20.0231    60.0000 </r>
       <r>   -21.3220     0.0000    60.0000 </r>
       <r>   -21.2221     0.0000    60.0000 </r>
       <r>   -21.1222     0.0000    60.0000 </r>
       <r>   -21.0224     0.0000    60.0000 </r>
       <r>   -20.9225     0.0000    60.0000 </r>
       <r>   -20.8226     0.0000    60.0000 </r>
       <r>   -20.7227     0.0000    60.0000 </r>
       <r>   -20.6228     0.0000    60.0000 </r>
       <r>   -20.5229     0.0000    60.0000 </r>
       <r>   -20.4231     0.0000    60.0000 </r>
       <r>   -20.3232     0.0000    60.0000 </r>
       <r>   -20.2233     0.0000    60.0000 </r>
       <r>   -20.1234     0.0000    60.0000 </r>
       <r>   -20.0235     0.0000    60.0000 </r>
       <r>   -19.9236     0.0000    60.0000 </r>
       <r>   -19.8237     0.0000    60.0000 </r>
       <r>   -19.7239     0.0000    60.0000 </r>
       <r>   -19.6240     0.0000    60.0000 </r>
       <r>   -19.5241     0.0000    60.0000 </r>
       <r>   -19.4242     0.0000    60.0000 </r>
       <r>   -19.3243     0.0000    60.0000 </r>
       <r>   -19.2244     0.0000    60.0000 </r>
       <r>   -19.1246     1.6297    60.1628 </r>
       <r>   -19.0247    20.0220    63.9999 </r>
       <r>   -18.9248    20.2477    66.0224 </r>
       <r>   -18.8249    15.6802    68.0000 </r>
       <r>   -18.7250    36.1249    71.6083 </r>
       <r>   -18.6251     0.0000    72.0000 </r>
       <r>   -18.5252     0.0000    72.0000 </r>
       <r>   -18.4254     0.0000    72.0000 </r>
       <r>   -18.3255     0.0000    72.0000 </r>
       <r>   -18.2256     0.0000    72.0000 </r>
       <r>   -18.1257     0.0000    72.0000 </r>
       <r>   -18.0258     0.0005    72.0001 </r>
       <r>   -17.9259    20.0027    73.9980 </r>
       <r>   -17.8261    18.9506    75.8933 </r>
       <r>   -17.7262    16.6828    77.6664 </r>
       <r>   -17.6263    14.1690    79.1653 </r>
       <r>   -17.5264     3.3353    80.0000 </r>
       <r>   -17.4265     2.0350    80.2033 </r>
       <r>   -17.3266     1.4727    80.3971 </r>
       <r>   -17.2267    10.2535    81.4742 </r>
       <r>   -17.1269     0.0000    82.0000 </r>
       <r>   -17.0270     0.4368    82.0436 </r>
       <r>   -16.9271    10.3628    83.5352 </r>
       <r>   -16.8272     1.7060    83.7537 </r>
       <r>   -16.7273     2.0021    84.0000 </r>
       <r>   -16.6274     0.0000    84.0000 </r>
       <r>   -16.5276     0.0000    84.0000 </r>
       <r>   -16.4277     0.1878    84.0188 </r>
       <r>   -16.3278    14.0066    86.0000 </r>
       <r>   -16.2279     0.0184    86.0018 </r>
       <r>   -16.1280    18.4193    88.1901 </r>
       <r>   -16.0281     3.6666    88.6163 </r>
       <r>   -15.9282    12.5096    89.9995 </r>
       <r>   -15.8284    20.2988    92.0276 </r>
       <r>   -15.7285    37.3580    95.9652 </r>
       <r>   -15.6286    19.1243    97.9102 </r>
       <r>   -15.5287    19.6885    99.9999 </r>
       <r>   -15.4288    20.3500   102.0327 </r>
       <r>   -15.3289    10.3175   103.7640 </r>
       <r>   -15.2291     1.8350   104.0000 </r>
       <r>   -15.1292    12.7437   105.2729 </r>
       <r>   -15.0293     6.2133   105.9873 </r>
       <r>   -14.9294    12.9176   107.2903 </r>
       <r>   -14.8295     9.9650   108.9122 </r>
       <r>   -14.7296    16.9800   111.1129 </r>
       <r>   -14.6297     4.6702   112.0000 </r>
       <r>   -14.5299     0.0000   112.0000 </r>
       <r>   -14.4300     0.0000   112.0000 </r>
       <r>   -14.3301     0.0000   112.0000 </r>
       <r>   -14.2302     0.0000   112.0000 </r>
       <r>   -14.1303     0.0000   112.0000 </r>
       <r>   -14.0304     6.8887   112.6881 </r>
       <r>   -13.9306    11.0234   114.4178 </r>
       <r>   -13.8307    10.5113   116.0004 </r>
       <r>   -13.7308     7.0122   116.7672 </r>
       <r>   -13.6309    17.9781   118.6624 </r>
       <r>   -13.5310     9.6760   120.0000 </r>
       <r>   -13.4311    20.1137   122.0091 </r>
       <r>   -13.3312    24.3066   124.6780 </r>
       <r>   -13.2314    17.8595   127.5676 </r>
       <r>   -13.1315    12.4044   128.9391 </r>
       <r>   -13.0316     7.5072   130.0000 </r>
       <r>   -12.9317    20.1263   132.0103 </r>
       <r>   -12.8318    14.5169   134.0001 </r>
       <r>   -12.7319    19.7078   135.9686 </r>
       <r>   -12.6321    16.6825   137.9997 </r>
       <r>   -12.5322    16.3668   139.6348 </r>
       <r>   -12.4323    10.1369   140.8627 </r>
       <r>   -12.3324    17.5711   143.7551 </r>
       <r>   -12.2325    19.1726   145.9986 </r>
       <r>   -12.1326    20.9642   148.0940 </r>
       <r>   -12.0327     0.0000   150.0000 </r>
       <r>   -11.9329     0.0001   150.0000 </r>
       <r>   -11.8330    20.0361   152.0013 </r>
       <r>   -11.7331    37.7519   155.9880 </r>
       <r>   -11.6332     0.0000   156.0000 </r>
       <r>   -11.5333    19.8261   157.9803 </r>
       <r>   -11.4334    52.4151   163.7856 </r>
       <r>   -11.3336    22.4478   167.9757 </r>
       <r>   -11.2337    30.6605   171.0625 </r>
       <r>   -11.1338    54.0233   177.3963 </r>
       <r>   -11.0339     0.0000   178.0000 </r>
       <r>   -10.9340     0.0000   178.0000 </r>
       <r>   -10.8341    21.7250   180.1700 </r>
       <r>   -10.7342    21.2277   182.6706 </r>
       <r>   -10.6344    30.1220   186.3254 </r>
       <r>   -10.5345    25.4842   189.2455 </r>
       <r>   -10.4346    22.7308   191.9038 </r>
       <r>   -10.3347     2.4300   192.2427 </r>
       <r>   -10.2348    12.6795   194.0000 </r>
       <r>   -10.1349    15.4907   195.5473 </r>
       <r>   -10.0351    22.4984   197.9973 </r>
       <r>    -9.9352    20.0187   200.0000 </r>
       <r>    -9.8353     0.0951   200.0095 </r>
       <r>    -9.7354    14.9320   201.6915 </r>
       <r>    -9.6355     0.0000   202.0000 </r>
       <r>    -9.5356    15.6305   203.5613 </r>
       <r>    -9.4357    19.5372   205.6682 </r>
       <r>    -9.3359     8.6432   206.8633 </r>
       <r>    -9.2360    21.0103   209.9988 </r>
       <r>    -9.1361    16.1652   212.0000 </r>
       <r>    -9.0362     1.6739   212.1672 </r>
       <r>    -8.9363    20.0145   215.9991 </r>
       <r>    -8.8364    20.0231   218.0000 </r>
       <r>    -8.7366     0.0000   218.0000 </r>
       <r>    -8.6367    21.1206   220.1096 </r>
       <r>    -8.5368    44.0201   226.0807 </r>
       <r>    -8.4369    20.0225   230.0000 </r>
       <r>    -8.3370    24.9841   232.4955 </r>
       <r>    -8.2371    20.0236   236.0000 </r>
       <r>    -8.1372    20.8740   238.0852 </r>
       <r>    -8.0374    10.1394   239.8463 </r>
       <r>    -7.9375    20.0230   242.0000 </r>
       <r>    -7.8376     3.4744   242.3470 </r>
       <r>    -7.7377    15.0185   244.0003 </r>
       <r>    -7.6378    37.5862   247.7546 </r>
       <r>    -7.5379     0.0000   248.0000 </r>
       <r>    -7.4381     0.0000   248.0000 </r>
       <r>    -7.3382     0.0000   248.0000 </r>
       <r>    -7.2383     0.0003   248.0000 </r>
       <r>    -7.1384    20.1626   250.0140 </r>
       <r>    -7.0385    27.2092   252.9679 </r>
       <r>    -6.9386    13.2070   255.0527 </r>
       <r>    -6.8387    19.4542   257.9432 </r>
       <r>    -6.7389    45.2340   262.9023 </r>
       <r>    -6.6390    21.0524   266.1028 </r>
       <r>    -6.5391    34.7261   270.0354 </r>
       <r>    -6.4392     1.8314   272.0000 </r>
       <r>    -6.3393     0.0000   272.0000 </r>
       <r>    -6.2394    20.0231   274.0000 </r>
       <r>    -6.1396    20.0171   275.9994 </r>
       <r>    -6.0397    19.7519   277.9729 </r>
       <r>    -5.9398    39.5178   281.9472 </r>
       <r>    -5.8399    13.6648   283.3649 </r>
       <r>    -5.7400    29.5651   286.9531 </r>
       <r>    -5.6401    20.0224   289.9999 </r>
       <r>    -5.5402    20.0230   292.0000 </r>
       <r>    -5.4404    20.0231   294.0000 </r>
       <r>    -5.3405    22.9655   296.2939 </r>
       <r>    -5.2406    40.0451   301.9999 </r>
       <r>    -5.1407    40.1739   306.0129 </r>
       <r>    -5.0408    19.1792   309.2994 </r>
       <r>    -4.9409    20.0231   312.0000 </r>
       <r>    -4.8411     0.0000   312.0000 </r>
       <r>    -4.7412     0.0000   312.0000 </r>
       <r>    -4.6413     0.0000   312.0000 </r>
       <r>    -4.5414     0.0000   312.0000 </r>
       <r>    -4.4415     0.0000   312.0000 </r>
       <r>    -4.3416     0.0000   312.0000 </r>
       <r>    -4.2417     0.0000   312.0000 </r>
       <r>    -4.1419     0.0000   312.0000 </r>
       <r>    -4.0420     0.0000   312.0000 </r>
       <r>    -3.9421     0.0000   312.0000 </r>
       <r>    -3.8422     0.0000   312.0000 </r>
       <r>    -3.7423     0.0000   312.0000 </r>
       <r>    -3.6424     0.0000   312.0000 </r>
       <r>    -3.5425     0.0000   312.0000 </r>
       <r>    -3.4427     0.0000   312.0000 </r>
       <r>    -3.3428     0.0033   312.0003 </r>
       <r>    -3.2429    21.4509   314.1429 </r>
       <r>    -3.1430    15.6218   316.3772 </r>
       <r>    -3.0431    10.7922   317.8615 </r>
       <r>    -2.9432    20.8456   320.0822 </r>
       <r>    -2.8434     1.8312   320.3162 </r>
       <r>    -2.7435     5.6348   320.9295 </r>
       <r>    -2.6436     5.3378   322.0000 </r>
       <r>    -2.5437     0.0000   322.0000 </r>
       <r>    -2.4438     5.9158   322.5909 </r>
       <r>    -2.3439     3.9482   323.5779 </r>
       <r>    -2.2440     1.2294   323.7395 </r>
       <r>    -2.1442     2.0007   323.9665 </r>
       <r>    -2.0443     0.0000   324.0000 </r>
       <r>    -1.9444     0.0000   324.0000 </r>
       <r>    -1.8445    20.8133   326.0789 </r>
       <r>    -1.7446    20.7806   328.2923 </r>
       <r>    -1.6447     3.2969   328.6627 </r>
       <r>    -1.5449    12.1733   329.9993 </r>
       <r>    -1.4450    16.2505   331.6232 </r>
       <r>    -1.3451    17.0862   333.7066 </r>
       <r>    -1.2452    21.1702   336.0147 </r>
       <r>    -1.1453    26.5167   339.8321 </r>
       <r>    -1.0454     1.5873   340.1585 </r>
       <r>    -0.9455    12.5130   342.0000 </r>
       <r>    -0.8457     0.0000   342.0000 </r>
       <r>    -0.7458    15.2768   343.5259 </r>
       <r>    -0.6459     1.3541   343.7019 </r>
       <r>    -0.5460     1.5002   343.8832 </r>
       <r>    -0.4461     0.6665   344.0000 </r>
       <r>    -0.3462    20.7199   346.0696 </r>
       <r>    -0.2464    12.6831   348.2504 </r>
       <r>    -0.1465     6.3116   348.9471 </r>
       <r>    -0.0466    12.9144   350.6900 </r>
       <r>     0.0533    17.3236   353.4638 </r>
       <r>     0.1532     3.1702   354.0000 </r>
       <r>     0.2531    20.1587   356.0135 </r>
       <r>     0.3530    17.7635   359.0914 </r>
       <r>     0.4528    41.5224   364.7810 </r>
       <r>     0.5527    12.2410   366.1896 </r>
       <r>     0.6526    20.6318   368.3775 </r>
       <r>     0.7525    29.1057   371.5408 </r>
       <r>     0.8524    39.7473   375.8202 </r>
       <r>     0.9523    33.2259   379.5521 </r>
       <r>     1.0521    28.5950   383.9063 </r>
       <r>     1.1520    48.5735   390.5019 </r>
       <r>     1.2519    38.0445   395.1005 </r>
       <r>     1.3518    49.0598   400.6504 </r>
       <r>     1.4517    37.6167   406.3409 </r>
       <r>     1.5516    43.2010   411.6820 </r>
       <r>     1.6515    29.5871   415.5055 </r>
       <r>     1.7513     1.3344   416.0000 </r>
       <r>     1.8512     0.0000   416.0000 </r>
       <r>     1.9511     0.0000   416.0000 </r>
       <r>     2.0510     0.0000   416.0000 </r>
       <r>     2.1509     0.0000   416.0000 </r>
       <r>     2.2508     0.0000   416.0000 </r>
       <r>     2.3506     0.0000   416.0000 </r>
       <r>     2.4505     0.0000   416.0000 </r>
       <r>     2.5504     0.0000   416.0000 </r>
       <r>     2.6503     0.0000   416.0000 </r>
       <r>     2.7502     0.0000   416.0000 </r>
       <r>     2.8501     0.0000   416.0000 </r>
       <r>     2.9500     0.0000   416.0000 </r>
       <r>     3.0498     0.0000   416.0000 </r>
      </set>
     </set>
    </array>
   </total>
  </dos>
 </calculation>
 <structure name="finalpos" >
  <crystal>
   <varray name="basis" >
    <v>      20.65242995       0.30900208       0.00000000 </v>
    <v>     -10.05308337      17.54416630       0.00000000 </v>
    <v>       0.00000000       0.00000000      20.00000000 </v>
   </varray>
   <i name="volume">   7308.72178081 </i>
   <varray name="rec_basis" >
    <v>       0.04800885       0.02750983       0.00000000 </v>
    <v>      -0.00084557       0.05651448       0.00000000 </v>
    <v>       0.00000000       0.00000000       0.05000000 </v>
   </varray>
  </crystal>
  <varray name="positions" >
   <v>       0.03514748       0.82292225       0.43018725 </v>
   <v>       0.17393776       0.70137125       0.56563635 </v>
   <v>       0.49422891       0.84531851       0.56215542 </v>
   <v>       0.45183521       0.82775896       0.62324945 </v>
   <v>       0.14445038       0.62161850       0.58632207 </v>
   <v>       0.14410344       0.48897171       0.59182761 </v>
   <v>       0.17350563       0.60162054       0.64401575 </v>
   <v>       0.03394694       0.94449437       0.40588958 </v>
   <v>       0.14532823       0.82682962       0.45660525 </v>
   <v>       0.07405293       0.90032981       0.41274495 </v>
   <v>       0.18470736       0.90114835       0.42726118 </v>
   <v>       0.18203703       0.79219903       0.49486482 </v>
   <v>       0.28253759       0.80942739       0.55516136 </v>
   <v>       0.36375624       0.84394991       0.56598857 </v>
   <v>       0.41495376       0.88183100       0.51447690 </v>
   <v>       0.09679006       0.49945490       0.54736548 </v>
   <v>       0.54341111       0.81269986       0.54757378 </v>
   <v>       0.28471993       0.44129361       0.55900164 </v>
   <v>       0.17521313       0.43864851       0.57392659 </v>
   <v>       0.62741594       0.79902271       0.48528437 </v>
   <v>       0.54203502       0.70045957       0.54662400 </v>
   <v>       0.18268809       0.35501243       0.50341029 </v>
   <v>       0.80323179       0.94524636       0.42298166 </v>
   <v>       0.03533262       0.17764181       0.44195025 </v>
   <v>       0.36559296       0.48984954       0.56728239 </v>
   <v>       0.49495805       0.61850492       0.56149444 </v>
   <v>       0.39637598       0.53618880       0.62601206 </v>
   <v>       0.03378752       0.05601291       0.41099536 </v>
   <v>       0.92508907       0.94605884       0.40743755 </v>
   <v>       0.69939702       0.83413573       0.45092923 </v>
   <v>       0.84289905       0.90533965       0.41343264 </v>
   <v>       0.73667249       0.79266443       0.43092392 </v>
   <v>       0.14572509       0.28305783       0.46696975 </v>
   <v>       0.07409243       0.13940047       0.42191057 </v>
   <v>       0.18511617       0.24767621       0.43749811 </v>
   <v>       0.47498838       0.56320048       0.51126466 </v>
   <v>       0.97493261       0.79120665       0.42794966 </v>
   <v>       0.51102750       0.79366981       0.68056803 </v>
   <v>       0.43768718       0.79508911       0.71935664 </v>
   <v>       0.22260404       0.70197923       0.69121295 </v>
   <v>       0.22524578       0.62873725       0.73257977 </v>
   <v>       0.28864348       0.91780226       0.44175660 </v>
   <v>       0.28143701       0.99243201       0.40206953 </v>
   <v>       0.40288437       0.90845906       0.47247912 </v>
   <v>       0.06166173       0.45623065       0.51159097 </v>
   <v>       0.82979838       0.00638130       0.41680866 </v>
   <v>       0.97508878       0.14961044       0.44122745 </v>
   <v>       0.30839330       0.48588156       0.68716231 </v>
   <v>       0.38710449       0.55830114       0.72213918 </v>
   <v>       0.65221546       0.68719670       0.44928388 </v>
   <v>       0.73551064       0.69278839       0.41836963 </v>
   <v>       0.28984712       0.33514967       0.45003056 </v>
   <v>       0.28165472       0.25203613       0.41104262 </v>
   <v>       0.50833322       0.57189991       0.46651642 </v>
   <v>       0.07120233       0.78857453       0.45405422 </v>
   <v>       0.14077306       0.72167342       0.51891908 </v>
   <v>       0.24087471       0.74853705       0.59256187 </v>
   <v>       0.38497830       0.82231187       0.62127218 </v>
   <v>       0.47691828       0.81670516       0.68306891 </v>
   <v>       0.17731944       0.53766392       0.64189067 </v>
   <v>       0.19801493       0.64527731       0.70010723 </v>
   <v>       0.95963668       0.90453152       0.40451275 </v>
   <v>       0.07395153       0.02018787       0.40762884 </v>
   <v>       0.14760763       0.93773678       0.40941164 </v>
   <v>       0.25860927       0.93757435       0.41640455 </v>
   <v>       0.25638499       0.83344021       0.50464074 </v>
   <v>       0.47773267       0.87782526       0.51199995 </v>
   <v>       0.10169046       0.56771745       0.54323670 </v>
   <v>       0.59813719       0.84332566       0.50306301 </v>
   <v>       0.52113452       0.74543334       0.57820989 </v>
   <v>       0.24354758       0.46019629       0.59844671 </v>
   <v>       0.14117695       0.38409237       0.52867972 </v>
   <v>       0.25732801       0.38963709       0.50998889 </v>
   <v>       0.73331383       0.90947387       0.44335894 </v>
   <v>       0.07151774       0.24758104       0.46583121 </v>
   <v>       0.45829074       0.60211813       0.61949122 </v>
   <v>       0.36477500       0.51621441       0.68769392 </v>
   <v>       0.95935160       0.02196700       0.41104716 </v>
   <v>       0.59398104       0.72360457       0.49866374 </v>
   <v>       0.80922829       0.83014736       0.41557087 </v>
   <v>       0.70278542       0.71644135       0.42691753 </v>
   <v>       0.14760865       0.17466835       0.41829013 </v>
   <v>       0.25902172       0.28348796       0.42807002 </v>
   <v>       0.40846885       0.50125349       0.51390881 </v>
  </varray>
 </structure>
</modeling>
