<?xml version="1.0" encoding="ISO-8859-1"?>
<modeling>
 <generator>
  <i name="program" type="string">vasp </i>
  <i name="version" type="string">5.4.4.18Apr17-6-g9f103f2a35  </i>
  <i name="subversion" type="string">(build Jun 07 2020 16:50:00) complex            parallel </i>
  <i name="platform" type="string">LinuxIFC </i>
  <i name="date" type="string">2023 02 19 </i>
  <i name="time" type="string">12:13:06 </i>
 </generator>
 <incar>
  <i type="string" name="SYSTEM">Simulation for cell shape cell volume r</i>
  <i type="int" name="ISTART">     1</i>
  <i type="string" name="PREC">high</i>
  <i type="string" name="ALGO">48</i>
  <i type="int" name="ICHARG">    11</i>
  <i type="int" name="NELM">   200</i>
  <i type="int" name="IBRION">    -1</i>
  <i name="EDIFF">      0.00001000</i>
  <i name="EDIFFG">     -0.01000000</i>
  <i type="int" name="NSW">     0</i>
  <i type="int" name="ISIF">     2</i>
  <i name="ENCUT">    500.00000000</i>
  <i name="POTIM">      0.30000000</i>
  <i type="string" name="LREAL">A</i>
  <i type="int" name="ISMEAR">     0</i>
  <i name="SIGMA">      0.01000000</i>
  <i type="int" name="NWRITE">     0</i>
  <i type="logical" name="LWAVE"> F  </i>
  <i type="logical" name="LCHARG"> F  </i>
  <v type="int" name="KPOINT_BSE">    -1     0     0     0</v>
  <i type="int" name="NELM">   200</i>
  <i type="string" name="GGA">PE</i>
 </incar>
 <structure name="primitive_cell" >
  <crystal>
   <varray name="basis" >
    <v>      29.03673578       0.01168908       0.00000000 </v>
    <v>     -14.50823864      25.20631360       0.00000000 </v>
    <v>       0.00000000       0.00000000      20.00000000 </v>
   </varray>
   <i name="volume">  14641.57312123 </i>
   <varray name="rec_basis" >
    <v>       0.03443115       0.01981787       0.00000000 </v>
    <v>      -0.00001597       0.03966341       0.00000000 </v>
    <v>       0.00000000       0.00000000       0.05000000 </v>
   </varray>
  </crystal>
  <varray name="positions" >
   <v>       0.44349961      -0.34702247      -0.47540310 </v>
   <v>       0.40094646      -0.37673107      -0.47976111 </v>
   <v>       0.38301332      -0.42599149      -0.49258968 </v>
   <v>       0.36482842      -0.35476066      -0.47546597 </v>
   <v>       0.46736114      -0.40459213      -0.41178509 </v>
   <v>       0.38891740      -0.30158307      -0.47577032 </v>
   <v>       0.41726244      -0.44627938      -0.49740284 </v>
   <v>       0.46084546      -0.43198970      -0.45302497 </v>
   <v>       0.31188410      -0.38806254      -0.47435382 </v>
   <v>       0.40750112      -0.48455985       0.45436630 </v>
   <v>       0.35548940      -0.28201233      -0.47629055 </v>
   <v>       0.49315076      -0.45153671      -0.45656604 </v>
   <v>       0.37370753      -0.49742734       0.42065252 </v>
   <v>       0.28270154      -0.36394784      -0.47510638 </v>
   <v>       0.30223665      -0.31107860      -0.47546853 </v>
   <v>       0.42679812      -0.19272317      -0.49301847 </v>
   <v>       0.44169211       0.49445027       0.44878670 </v>
   <v>       0.37735673      -0.22408564      -0.48092017 </v>
   <v>       0.48511734      -0.48728926       0.49477883 </v>
   <v>       0.22464377      -0.39997697      -0.47897500 </v>
   <v>       0.21196268      -0.44244940      -0.47433036 </v>
   <v>       0.34747199      -0.21135041      -0.47704380 </v>
   <v>       0.44703365      -0.13830239      -0.49746821 </v>
   <v>       0.49941276      -0.13010316       0.42166999 </v>
   <v>       0.43359158       0.45559989       0.39910562 </v>
   <v>      -0.47923243       0.49139778       0.48991526 </v>
   <v>       0.40014627       0.44260803       0.36475371 </v>
   <v>       0.48597024      -0.10949401       0.45509583 </v>
   <v>      -0.43712688      -0.49043594      -0.46784545 </v>
   <v>       0.19315948      -0.38210068      -0.49179640 </v>
   <v>       0.40417244      -0.13051216      -0.41266259 </v>
   <v>       0.43207753      -0.10938858      -0.45336648 </v>
   <v>       0.46675510       0.43513700       0.39501667 </v>
   <v>      -0.48948731       0.45195703       0.44031153 </v>
   <v>      -0.49311743      -0.05442048       0.44991077 </v>
   <v>      -0.40544444       0.48931331      -0.47215639 </v>
   <v>       0.13866824      -0.41630863      -0.49646882 </v>
   <v>       0.13055916      -0.46584555      -0.41034054 </v>
   <v>       0.46035248       0.40530274       0.35740223 </v>
   <v>       0.45158331      -0.05764210      -0.45648740 </v>
   <v>      -0.44033885      -0.04363683       0.36665730 </v>
   <v>      -0.37152070      -0.49528924      -0.43800474 </v>
   <v>      -0.45584218       0.43007393       0.43818041 </v>
   <v>       0.10956746      -0.45958477      -0.45173523 </v>
   <v>       0.48797081      -0.02962623       0.49559133 </v>
   <v>      -0.45378579      -0.02344342       0.40080639 </v>
   <v>      -0.41370995       0.44777742       0.48300596 </v>
   <v>       0.13076391      -0.37328048       0.42111236 </v>
   <v>       0.10998833      -0.40684838       0.45507819 </v>
   <v>      -0.46221410       0.40024390       0.40055239 </v>
   <v>       0.05777127      -0.49188442      -0.45514588 </v>
   <v>      -0.43353846       0.03003720       0.39690955 </v>
   <v>      -0.49072319       0.02724208       0.49115680 </v>
   <v>      -0.37835087       0.42856078       0.48504731 </v>
   <v>       0.05487612      -0.44110581       0.44956788 </v>
   <v>       0.02995776      -0.48417363       0.49596299 </v>
   <v>      -0.45093526       0.05662176       0.44197063 </v>
   <v>      -0.40343969       0.05360755       0.35962567 </v>
   <v>       0.49078496       0.05093434      -0.46666904 </v>
   <v>      -0.43933417       0.34894410       0.47860521 </v>
   <v>      -0.39655735       0.37842490       0.48050097 </v>
   <v>       0.04411160      -0.40036682       0.36485621 </v>
   <v>       0.02391224      -0.43355100       0.39952921 </v>
   <v>      -0.02688749       0.48005859       0.49121982 </v>
   <v>      -0.42929842       0.11199132       0.43997836 </v>
   <v>      -0.48912928       0.10274176      -0.47077589 </v>
   <v>      -0.05050123       0.43847086      -0.46589228 </v>
   <v>      -0.36159453       0.35507801       0.47987795 </v>
   <v>      -0.02960156      -0.46696653       0.39537635 </v>
   <v>      -0.39927417       0.13553315       0.40257451 </v>
   <v>      -0.44746072       0.13614479       0.48460957 </v>
   <v>      -0.05627153       0.48960719       0.44107209 </v>
   <v>       0.49519974       0.12103580      -0.43663193 </v>
   <v>      -0.30846195       0.38700677       0.47930714 </v>
   <v>      -0.38717085       0.30178760       0.48031615 </v>
   <v>      -0.05314300      -0.46101475       0.35738097 </v>
   <v>      -0.10231524       0.40647969      -0.47018931 </v>
   <v>      -0.42852908       0.19056697       0.48659539 </v>
   <v>      -0.34869228       0.20935073       0.48027176 </v>
   <v>      -0.12054974       0.37299671      -0.43544102 </v>
   <v>      -0.11167407       0.45562631       0.43887207 </v>
   <v>      -0.20941365       0.43901672       0.47822219 </v>
   <v>      -0.28066250       0.36139710       0.48000944 </v>
   <v>      -0.13578399       0.41393254       0.48425755 </v>
   <v>      -0.35510240       0.28067411       0.48075447 </v>
   <v>      -0.37833514       0.22252621       0.48200347 </v>
   <v>      -0.22243262       0.39634575       0.48081805 </v>
   <v>      -0.13531909       0.46138782       0.40081160 </v>
   <v>      -0.30172043       0.30834531       0.48037949 </v>
   <v>      -0.19025351       0.37836420       0.48625394 </v>
  </varray>
 </structure>
 <varray name="primitive_index" >
  <v type="int" >        1 </v>
  <v type="int" >       48 </v>
  <v type="int" >       33 </v>
  <v type="int" >       44 </v>
  <v type="int" >       24 </v>
  <v type="int" >       26 </v>
  <v type="int" >       74 </v>
  <v type="int" >       90 </v>
  <v type="int" >       25 </v>
  <v type="int" >       75 </v>
  <v type="int" >       45 </v>
  <v type="int" >       41 </v>
  <v type="int" >       18 </v>
  <v type="int" >       43 </v>
  <v type="int" >       27 </v>
  <v type="int" >       31 </v>
  <v type="int" >       76 </v>
  <v type="int" >       46 </v>
  <v type="int" >       73 </v>
  <v type="int" >       47 </v>
  <v type="int" >        2 </v>
  <v type="int" >        3 </v>
  <v type="int" >       58 </v>
  <v type="int" >       10 </v>
  <v type="int" >       77 </v>
  <v type="int" >       89 </v>
  <v type="int" >       16 </v>
  <v type="int" >       59 </v>
  <v type="int" >       40 </v>
  <v type="int" >       32 </v>
  <v type="int" >       20 </v>
  <v type="int" >       82 </v>
  <v type="int" >       78 </v>
  <v type="int" >       71 </v>
  <v type="int" >       60 </v>
  <v type="int" >       88 </v>
  <v type="int" >       66 </v>
  <v type="int" >       22 </v>
  <v type="int" >       17 </v>
  <v type="int" >       35 </v>
  <v type="int" >        8 </v>
  <v type="int" >       23 </v>
  <v type="int" >       72 </v>
  <v type="int" >       86 </v>
  <v type="int" >       57 </v>
  <v type="int" >       61 </v>
  <v type="int" >       87 </v>
  <v type="int" >       14 </v>
  <v type="int" >       67 </v>
  <v type="int" >       15 </v>
  <v type="int" >       38 </v>
  <v type="int" >       62 </v>
  <v type="int" >       81 </v>
  <v type="int" >       42 </v>
  <v type="int" >       68 </v>
  <v type="int" >       65 </v>
  <v type="int" >       55 </v>
  <v type="int" >        9 </v>
  <v type="int" >       34 </v>
  <v type="int" >        4 </v>
  <v type="int" >       54 </v>
  <v type="int" >       12 </v>
  <v type="int" >       69 </v>
  <v type="int" >       85 </v>
  <v type="int" >       56 </v>
  <v type="int" >       80 </v>
  <v type="int" >       37 </v>
  <v type="int" >       50 </v>
  <v type="int" >       70 </v>
  <v type="int" >        7 </v>
  <v type="int" >       79 </v>
  <v type="int" >       63 </v>
  <v type="int" >       19 </v>
  <v type="int" >       28 </v>
  <v type="int" >       29 </v>
  <v type="int" >       13 </v>
  <v type="int" >       84 </v>
  <v type="int" >       36 </v>
  <v type="int" >        6 </v>
  <v type="int" >       21 </v>
  <v type="int" >       64 </v>
  <v type="int" >        5 </v>
  <v type="int" >       49 </v>
  <v type="int" >       83 </v>
  <v type="int" >       51 </v>
  <v type="int" >       52 </v>
  <v type="int" >       53 </v>
  <v type="int" >       11 </v>
  <v type="int" >       30 </v>
  <v type="int" >       39 </v>
 </varray>
 <kpoints>
  <generation param="listgenerated">
   <i name="divisions" type="int">      20 </i>
   <v>       0.00000000       0.00000000       0.00000000 </v>
   <v>       0.50000000       0.00000000       0.00000000 </v>
   <v>       0.33333333       0.33333333       0.00000000 </v>
   <v>       0.00000000       0.00000000       0.00000000 </v>
  </generation>
  <varray name="kpointlist" >
   <v>       0.00000000       0.00000000       0.00000000 </v>
   <v>       0.02631579       0.00000000       0.00000000 </v>
   <v>       0.05263158       0.00000000       0.00000000 </v>
   <v>       0.07894737       0.00000000       0.00000000 </v>
   <v>       0.10526316       0.00000000       0.00000000 </v>
   <v>       0.13157895       0.00000000       0.00000000 </v>
   <v>       0.15789474       0.00000000       0.00000000 </v>
   <v>       0.18421053       0.00000000       0.00000000 </v>
   <v>       0.21052632       0.00000000       0.00000000 </v>
   <v>       0.23684211       0.00000000       0.00000000 </v>
   <v>       0.26315789       0.00000000       0.00000000 </v>
   <v>       0.28947368       0.00000000       0.00000000 </v>
   <v>       0.31578947       0.00000000       0.00000000 </v>
   <v>       0.34210526       0.00000000       0.00000000 </v>
   <v>       0.36842105       0.00000000       0.00000000 </v>
   <v>       0.39473684       0.00000000       0.00000000 </v>
   <v>       0.42105263       0.00000000       0.00000000 </v>
   <v>       0.44736842       0.00000000       0.00000000 </v>
   <v>       0.47368421       0.00000000       0.00000000 </v>
   <v>       0.50000000       0.00000000       0.00000000 </v>
   <v>       0.50000000       0.00000000       0.00000000 </v>
   <v>       0.49122807       0.01754386       0.00000000 </v>
   <v>       0.48245614       0.03508772       0.00000000 </v>
   <v>       0.47368421       0.05263158       0.00000000 </v>
   <v>       0.46491228       0.07017544       0.00000000 </v>
   <v>       0.45614035       0.08771930       0.00000000 </v>
   <v>       0.44736842       0.10526316       0.00000000 </v>
   <v>       0.43859649       0.12280702       0.00000000 </v>
   <v>       0.42982456       0.14035088       0.00000000 </v>
   <v>       0.42105263       0.15789474       0.00000000 </v>
   <v>       0.41228070       0.17543860       0.00000000 </v>
   <v>       0.40350877       0.19298246       0.00000000 </v>
   <v>       0.39473684       0.21052632       0.00000000 </v>
   <v>       0.38596491       0.22807018       0.00000000 </v>
   <v>       0.37719298       0.24561404       0.00000000 </v>
   <v>       0.36842105       0.26315789       0.00000000 </v>
   <v>       0.35964912       0.28070175       0.00000000 </v>
   <v>       0.35087719       0.29824561       0.00000000 </v>
   <v>       0.34210526       0.31578947       0.00000000 </v>
   <v>       0.33333333       0.33333333       0.00000000 </v>
   <v>       0.33333333       0.33333333       0.00000000 </v>
   <v>       0.31578947       0.31578947       0.00000000 </v>
   <v>       0.29824561       0.29824561       0.00000000 </v>
   <v>       0.28070175       0.28070175       0.00000000 </v>
   <v>       0.26315789       0.26315789       0.00000000 </v>
   <v>       0.24561404       0.24561404       0.00000000 </v>
   <v>       0.22807018       0.22807018       0.00000000 </v>
   <v>       0.21052632       0.21052632       0.00000000 </v>
   <v>       0.19298246       0.19298246       0.00000000 </v>
   <v>       0.17543860       0.17543860       0.00000000 </v>
   <v>       0.15789474       0.15789474       0.00000000 </v>
   <v>       0.14035088       0.14035088       0.00000000 </v>
   <v>       0.12280702       0.12280702       0.00000000 </v>
   <v>       0.10526316       0.10526316       0.00000000 </v>
   <v>       0.08771930       0.08771930       0.00000000 </v>
   <v>       0.07017544       0.07017544       0.00000000 </v>
   <v>       0.05263158       0.05263158       0.00000000 </v>
   <v>       0.03508772       0.03508772       0.00000000 </v>
   <v>       0.01754386       0.01754386       0.00000000 </v>
   <v>       0.00000000       0.00000000       0.00000000 </v>
  </varray>
  <varray name="weights" >
   <v>       0.01666667 </v>
   <v>       0.01666667 </v>
   <v>       0.01666667 </v>
   <v>       0.01666667 </v>
   <v>       0.01666667 </v>
   <v>       0.01666667 </v>
   <v>       0.01666667 </v>
   <v>       0.01666667 </v>
   <v>       0.01666667 </v>
   <v>       0.01666667 </v>
   <v>       0.01666667 </v>
   <v>       0.01666667 </v>
   <v>       0.01666667 </v>
   <v>       0.01666667 </v>
   <v>       0.01666667 </v>
   <v>       0.01666667 </v>
   <v>       0.01666667 </v>
   <v>       0.01666667 </v>
   <v>       0.01666667 </v>
   <v>       0.01666667 </v>
   <v>       0.01666667 </v>
   <v>       0.01666667 </v>
   <v>       0.01666667 </v>
   <v>       0.01666667 </v>
   <v>       0.01666667 </v>
   <v>       0.01666667 </v>
   <v>       0.01666667 </v>
   <v>       0.01666667 </v>
   <v>       0.01666667 </v>
   <v>       0.01666667 </v>
   <v>       0.01666667 </v>
   <v>       0.01666667 </v>
   <v>       0.01666667 </v>
   <v>       0.01666667 </v>
   <v>       0.01666667 </v>
   <v>       0.01666667 </v>
   <v>       0.01666667 </v>
   <v>       0.01666667 </v>
   <v>       0.01666667 </v>
   <v>       0.01666667 </v>
   <v>       0.01666667 </v>
   <v>       0.01666667 </v>
   <v>       0.01666667 </v>
   <v>       0.01666667 </v>
   <v>       0.01666667 </v>
   <v>       0.01666667 </v>
   <v>       0.01666667 </v>
   <v>       0.01666667 </v>
   <v>       0.01666667 </v>
   <v>       0.01666667 </v>
   <v>       0.01666667 </v>
   <v>       0.01666667 </v>
   <v>       0.01666667 </v>
   <v>       0.01666667 </v>
   <v>       0.01666667 </v>
   <v>       0.01666667 </v>
   <v>       0.01666667 </v>
   <v>       0.01666667 </v>
   <v>       0.01666667 </v>
   <v>       0.01666667 </v>
  </varray>
 </kpoints>
 <parameters>
  <separator name="general" >
   <i type="string" name="SYSTEM">Simulation for cell shape cell volume r</i>
   <i type="logical" name="LCOMPAT"> F  </i>
  </separator>
  <separator name="electronic" >
   <i type="string" name="PREC">high</i>
   <i name="ENMAX">    500.00000000</i>
   <i name="ENAUG">    644.87300000</i>
   <i name="EDIFF">      0.00001000</i>
   <i type="int" name="IALGO">    38</i>
   <i type="int" name="IWAVPR">    10</i>
   <i type="int" name="NBANDS">   208</i>
   <i name="NELECT">    306.00000000</i>
   <i type="int" name="TURBO">     0</i>
   <i type="int" name="IRESTART">     0</i>
   <i type="int" name="NREBOOT">     0</i>
   <i type="int" name="NMIN">     0</i>
   <i name="EREF">      0.00000000</i>
   <separator name="electronic smearing" >
    <i type="int" name="ISMEAR">     0</i>
    <i name="SIGMA">      0.01000000</i>
    <i name="KSPACING">      0.50000000</i>
    <i type="logical" name="KGAMMA"> T  </i>
   </separator>
   <separator name="electronic projectors" >
    <i type="logical" name="LREAL"> T  </i>
    <v name="ROPT">     -0.00040000     -0.00040000     -0.00040000</v>
    <i type="int" name="LMAXPAW">  -100</i>
    <i type="int" name="LMAXMIX">     2</i>
    <i type="logical" name="NLSPLINE"> F  </i>
   </separator>
   <separator name="electronic startup" >
    <i type="int" name="ISTART">     1</i>
    <i type="int" name="ICHARG">    11</i>
    <i type="int" name="INIWAV">     1</i>
   </separator>
   <separator name="electronic spin" >
    <i type="int" name="ISPIN">     1</i>
    <i type="logical" name="LNONCOLLINEAR"> F  </i>
    <v name="MAGMOM">      1.00000000      1.00000000      1.00000000      1.00000000      1.00000000      1.00000000      1.00000000      1.00000000      1.00000000      1.00000000      1.00000000      1.00000000      1.00000000      1.00000000      1.00000000      1.00000000      1.00000000      1.00000000      1.00000000      1.00000000
      1.00000000      1.00000000      1.00000000      1.00000000      1.00000000      1.00000000      1.00000000      1.00000000      1.00000000      1.00000000      1.00000000      1.00000000      1.00000000      1.00000000      1.00000000      1.00000000      1.00000000      1.00000000      1.00000000      1.00000000
      1.00000000      1.00000000      1.00000000      1.00000000      1.00000000      1.00000000      1.00000000      1.00000000      1.00000000      1.00000000      1.00000000      1.00000000      1.00000000      1.00000000      1.00000000      1.00000000      1.00000000      1.00000000      1.00000000      1.00000000
      1.00000000      1.00000000      1.00000000      1.00000000      1.00000000      1.00000000      1.00000000      1.00000000      1.00000000      1.00000000      1.00000000      1.00000000      1.00000000      1.00000000      1.00000000      1.00000000      1.00000000      1.00000000      1.00000000      1.00000000
      1.00000000      1.00000000      1.00000000      1.00000000      1.00000000      1.00000000      1.00000000      1.00000000      1.00000000      1.00000000</v>
    <i name="NUPDOWN">     -1.00000000</i>
    <i type="logical" name="LSORBIT"> F  </i>
    <v name="SAXIS">      0.00000000      0.00000000      1.00000000</v>
    <i type="logical" name="LSPIRAL"> F  </i>
    <v name="QSPIRAL">      0.00000000      0.00000000      0.00000000</v>
    <i type="logical" name="LZEROZ"> F  </i>
   </separator>
   <separator name="electronic exchange-correlation" >
    <i type="logical" name="LASPH"> F  </i>
    <i type="logical" name="LMETAGGA"> F  </i>
   </separator>
   <separator name="electronic convergence" >
    <i type="int" name="NELM">   200</i>
    <i type="int" name="NELMDL">     0</i>
    <i type="int" name="NELMIN">     2</i>
    <i name="ENINI">    500.00000000</i>
    <separator name="electronic convergence detail" >
     <i type="logical" name="LDIAG"> T  </i>
     <i type="logical" name="LSUBROT"> F  </i>
     <i name="WEIMIN">      0.00000000</i>
     <i name="EBREAK">      0.00000001</i>
     <i name="DEPER">      0.30000000</i>
     <i type="int" name="NRMM">     4</i>
     <i name="TIME">      0.40000000</i>
    </separator>
   </separator>
   <separator name="electronic mixer" >
    <i name="AMIX">      0.40000000</i>
    <i name="BMIX">      1.00000000</i>
    <i name="AMIN">      0.10000000</i>
    <i name="AMIX_MAG">      1.60000000</i>
    <i name="BMIX_MAG">      1.00000000</i>
    <separator name="electronic mixer details" >
     <i type="int" name="IMIX">     4</i>
     <i type="logical" name="MIXFIRST"> F  </i>
     <i type="int" name="MAXMIX">   -45</i>
     <i name="WC">    100.00000000</i>
     <i type="int" name="INIMIX">     1</i>
     <i type="int" name="MIXPRE">     1</i>
     <i type="int" name="MREMOVE">     5</i>
    </separator>
   </separator>
   <separator name="electronic dipolcorrection" >
    <i type="logical" name="LDIPOL"> F  </i>
    <i type="logical" name="LMONO"> F  </i>
    <i type="int" name="IDIPOL">     0</i>
    <i name="EPSILON">      1.00000000</i>
    <v name="DIPOL">   -100.00000000   -100.00000000   -100.00000000</v>
    <i name="EFIELD">      0.00000000</i>
   </separator>
  </separator>
  <separator name="grids" >
   <i type="int" name="NGX">   216</i>
   <i type="int" name="NGY">   216</i>
   <i type="int" name="NGZ">   150</i>
   <i type="int" name="NGXF">   320</i>
   <i type="int" name="NGYF">   324</i>
   <i type="int" name="NGZF">   224</i>
   <i type="logical" name="ADDGRID"> F  </i>
  </separator>
  <separator name="ionic" >
   <i type="int" name="NSW">     0</i>
   <i type="int" name="IBRION">    -1</i>
   <i type="int" name="MDALGO">     0</i>
   <i type="int" name="ISIF">     2</i>
   <i name="PSTRESS">      0.00000000</i>
   <i name="EDIFFG">     -0.01000000</i>
   <i type="int" name="NFREE">     0</i>
   <i name="POTIM">      0.30000000</i>
   <i name="SMASS">     -3.00000000</i>
   <i name="SCALEE">      1.00000000</i>
  </separator>
  <separator name="ionic md" >
   <i name="TEBEG">      0.00010000</i>
   <i name="TEEND">      0.00010000</i>
   <i type="int" name="NBLOCK">     1</i>
   <i type="int" name="KBLOCK">     1</i>
   <i type="int" name="NPACO">   256</i>
   <i name="APACO">     16.00000000</i>
  </separator>
  <separator name="symmetry" >
   <i type="int" name="ISYM">     2</i>
   <i name="SYMPREC">      0.00001000</i>
  </separator>
  <separator name="dos" >
   <i type="int" name="LORBIT">     0</i>
   <v name="RWIGS">     -1.00000000     -1.00000000     -1.00000000</v>
   <i type="int" name="NEDOS">   301</i>
   <i name="EMIN">     10.00000000</i>
   <i name="EMAX">    -10.00000000</i>
   <i name="EFERMI">      0.00000000</i>
  </separator>
  <separator name="writing" >
   <i type="int" name="NWRITE">     0</i>
   <i type="logical" name="LWAVE"> F  </i>
   <i type="logical" name="LDOWNSAMPLE"> F  </i>
   <i type="logical" name="LCHARG"> F  </i>
   <i type="logical" name="LPARD"> F  </i>
   <i type="logical" name="LVTOT"> F  </i>
   <i type="logical" name="LVHAR"> F  </i>
   <i type="logical" name="LELF"> F  </i>
   <i type="logical" name="LOPTICS"> F  </i>
   <v name="STM">      0.00000000      0.00000000      0.00000000      0.00000000      0.00000000      0.00000000      0.00000000</v>
  </separator>
  <separator name="performance" >
   <i type="int" name="NPAR">    16</i>
   <i type="int" name="NSIM">     4</i>
   <i type="int" name="NBLK">    -1</i>
   <i type="logical" name="LPLANE"> T  </i>
   <i type="logical" name="LSCALAPACK"> T  </i>
   <i type="logical" name="LSCAAWARE"> F  </i>
   <i type="logical" name="LSCALU"> F  </i>
   <i type="logical" name="LASYNC"> F  </i>
   <i type="logical" name="LORBITALREAL"> F  </i>
  </separator>
  <separator name="miscellaneous" >
   <i type="int" name="IDIOT">     3</i>
   <i type="int" name="ISPECIAL">     0</i>
   <i type="logical" name="LMUSIC"> F  </i>
   <v name="POMASS">      1.00000000     14.00100000     12.01100000</v>
   <v name="DARWINR">      0.00000000      0.00000000      0.00000000</v>
   <v name="DARWINV">      1.00000000      1.00000000      1.00000000</v>
   <i type="logical" name="LCORR"> T  </i>
  </separator>
  <i type="logical" name="GGA_COMPAT"> T  </i>
  <i type="logical" name="LBERRY"> F  </i>
  <i type="int" name="ICORELEVEL">     0</i>
  <i type="logical" name="LDAU"> F  </i>
  <i type="int" name="I_CONSTRAINED_M">     0</i>
  <separator name="electronic exchange-correlation" >
   <i type="string" name="GGA">PE</i>
   <i type="int" name="VOSKOWN">     0</i>
   <i type="logical" name="LHFCALC"> F  </i>
   <i type="string" name="PRECFOCK"></i>
   <i type="logical" name="LSYMGRAD"> F  </i>
   <i type="logical" name="LHFONE"> F  </i>
   <i type="logical" name="LRHFCALC"> F  </i>
   <i type="logical" name="LTHOMAS"> F  </i>
   <i type="logical" name="LMODELHF"> F  </i>
   <i name="ENCUT4O">     -1.00000000</i>
   <i type="int" name="EXXOEP">     0</i>
   <i type="int" name="FOURORBIT">     0</i>
   <i name="AEXX">      0.00000000</i>
   <i name="HFALPHA">      0.00000000</i>
   <i name="MCALPHA">      0.00000000</i>
   <i name="ALDAX">      1.00000000</i>
   <i name="AGGAX">      1.00000000</i>
   <i name="ALDAC">      1.00000000</i>
   <i name="AGGAC">      1.00000000</i>
   <i type="int" name="NKREDX">     1</i>
   <i type="int" name="NKREDY">     1</i>
   <i type="int" name="NKREDZ">     1</i>
   <i type="logical" name="SHIFTRED"> F  </i>
   <i type="logical" name="ODDONLY"> F  </i>
   <i type="logical" name="EVENONLY"> F  </i>
   <i type="int" name="LMAXFOCK">     0</i>
   <i type="int" name="NMAXFOCKAE">     0</i>
   <i type="logical" name="LFOCKAEDFT"> F  </i>
   <i name="HFSCREEN">      0.00000000</i>
   <i name="HFSCREENC">      0.00000000</i>
   <i type="int" name="NBANDSGWLOW">     0</i>
  </separator>
  <separator name="vdW DFT" >
   <i type="logical" name="LUSE_VDW"> F  </i>
   <i name="Zab_VDW">     -0.84910000</i>
   <i name="PARAM1">      0.12340000</i>
   <i name="PARAM2">      1.00000000</i>
   <i name="PARAM3">      0.00000000</i>
  </separator>
  <separator name="model GW" >
   <i type="int" name="MODEL_GW">     0</i>
   <i name="MODEL_EPS0">     97.61048747</i>
   <i name="MODEL_ALPHA">      1.00000000</i>
  </separator>
  <separator name="linear response parameters" >
   <i type="logical" name="LEPSILON"> F  </i>
   <i type="logical" name="LRPA"> F  </i>
   <i type="logical" name="LNABLA"> F  </i>
   <i type="logical" name="LVEL"> F  </i>
   <i type="int" name="KINTER">     0</i>
   <i name="CSHIFT">      0.10000000</i>
   <i name="OMEGAMAX">     -1.00000000</i>
   <i name="DEG_THRESHOLD">      0.00200000</i>
   <i name="RTIME">     -0.10000000</i>
   <i name="WPLASMAI">      0.00000000</i>
   <v name="DFIELD">      0.00000000      0.00000000      0.00000000</v>
   <v name="WPLASMA">      0.00000000      0.00000000      0.00000000      0.00000000      0.00000000      0.00000000      0.00000000      0.00000000      0.00000000</v>
  </separator>
  <separator name="orbital magnetization" >
   <i type="logical" name="NUCIND"> F  </i>
   <v name="MAGPOS">      0.00000000      0.00000000      0.00000000</v>
   <i type="logical" name="LNICSALL"> T  </i>
   <i type="logical" name="ORBITALMAG"> F  </i>
   <i type="logical" name="LMAGBLOCH"> F  </i>
   <i type="logical" name="LCHIMAG"> F  </i>
   <i type="logical" name="LGAUGE"> T  </i>
   <i type="int" name="MAGATOM">     0</i>
   <v name="MAGDIPOL">      0.00000000      0.00000000      0.00000000</v>
   <v name="AVECCONST">      0.00000000      0.00000000      0.00000000</v>
  </separator>
  <separator name="response functions" >
   <i type="logical" name="LADDER"> F  </i>
   <i type="logical" name="LRPAFORCE"> F  </i>
   <i type="logical" name="LFXC"> F  </i>
   <i type="logical" name="LHARTREE"> T  </i>
   <i type="int" name="IBSE">     0</i>
   <v type="int" name="KPOINT">    -1     0     0     0</v>
   <i type="logical" name="LTCTE"> F  </i>
   <i type="logical" name="LTETE"> F  </i>
   <i type="logical" name="LTRIPLET"> F  </i>
   <i type="logical" name="LFXCEPS"> F  </i>
   <i type="logical" name="LFXHEG"> F  </i>
   <i type="int" name="NATURALO">     2</i>
   <i type="logical" name="L2ORDER"> F  </i>
   <i type="logical" name="LMP2LT"> F  </i>
   <i type="logical" name="LUSEW"> F  </i>
   <i name="ENCUTGW">     -2.00000000</i>
   <i name="ENCUTGWSOFT">     -2.00000000</i>
   <i name="ENCUTLF">     -1.00000000</i>
   <i type="int" name="LMAXMP2">    -1</i>
   <i name="SCISSOR">      0.00000000</i>
   <i type="int" name="NOMEGA">     0</i>
   <i type="int" name="NOMEGAR">     0</i>
   <i type="int" name="NBANDSGW">    -1</i>
   <i type="int" name="NBANDSO">    -1</i>
   <i type="int" name="NBANDSV">    -1</i>
   <i type="int" name="NELM">   200</i>
   <i type="int" name="NELMHF">     1</i>
   <i type="int" name="DIM">     3</i>
   <i type="int" name="ANTIRES">     0</i>
   <i name="OMEGAMAX">    -30.00000000</i>
   <i name="OMEGAMIN">    -30.00000000</i>
   <i name="OMEGATL">   -200.00000000</i>
   <i type="int" name="OMEGAGRID">   140</i>
   <i name="CSHIFT">     -0.10000000</i>
   <i type="logical" name="SELFENERGY"> F  </i>
   <i type="logical" name="LSPECTRAL"> F  </i>
   <i type="logical" name="LSPECTRALGW"> F  </i>
   <i type="logical" name="LSINGLES"> F  </i>
   <i type="logical" name="LFERMIGW"> F  </i>
   <i type="logical" name="ODDONLYGW"> F  </i>
   <i type="logical" name="EVENONLYGW"> F  </i>
   <i type="int" name="NKREDLFX">     1</i>
   <i type="int" name="NKREDLFY">     1</i>
   <i type="int" name="NKREDLFZ">     1</i>
   <i type="int" name="MAXMEM">  2800</i>
   <i type="int" name="TELESCOPE">     0</i>
   <i type="int" name="TAUPAR">     1</i>
   <i type="int" name="OMEGAPAR">    -1</i>
   <i name="LAMBDA">      1.00000000</i>
  </separator>
  <separator name="External order field" >
   <i name="OFIELD_KAPPA">      0.00000000</i>
   <v name="OFIELD_K">      0.00000000      0.00000000      0.00000000</v>
   <i name="OFIELD_Q6_NEAR">      0.00000000</i>
   <i name="OFIELD_Q6_FAR">      0.00000000</i>
   <i name="OFIELD_A">      0.00000000</i>
  </separator>
  <separator name="solvation model" >
   <i type="logical" name="LSOL"> F  </i>
  </separator>
 </parameters>
 <atominfo>
  <atoms>      90 </atoms>
  <types>       3 </types>
  <array name="atoms" >
   <dimension dim="1">ion</dimension>
   <field type="string">element</field>
   <field type="int">atomtype</field>
   <set>
    <rc><c>H </c><c>   1</c></rc>
    <rc><c>H </c><c>   1</c></rc>
    <rc><c>H </c><c>   1</c></rc>
    <rc><c>H </c><c>   1</c></rc>
    <rc><c>H </c><c>   1</c></rc>
    <rc><c>H </c><c>   1</c></rc>
    <rc><c>H </c><c>   1</c></rc>
    <rc><c>H </c><c>   1</c></rc>
    <rc><c>H </c><c>   1</c></rc>
    <rc><c>H </c><c>   1</c></rc>
    <rc><c>H </c><c>   1</c></rc>
    <rc><c>H </c><c>   1</c></rc>
    <rc><c>H </c><c>   1</c></rc>
    <rc><c>H </c><c>   1</c></rc>
    <rc><c>H </c><c>   1</c></rc>
    <rc><c>H </c><c>   1</c></rc>
    <rc><c>H </c><c>   1</c></rc>
    <rc><c>H </c><c>   1</c></rc>
    <rc><c>H </c><c>   1</c></rc>
    <rc><c>H </c><c>   1</c></rc>
    <rc><c>H </c><c>   1</c></rc>
    <rc><c>H </c><c>   1</c></rc>
    <rc><c>H </c><c>   1</c></rc>
    <rc><c>H </c><c>   1</c></rc>
    <rc><c>N </c><c>   2</c></rc>
    <rc><c>N </c><c>   2</c></rc>
    <rc><c>N </c><c>   2</c></rc>
    <rc><c>N </c><c>   2</c></rc>
    <rc><c>N </c><c>   2</c></rc>
    <rc><c>N </c><c>   2</c></rc>
    <rc><c>N </c><c>   2</c></rc>
    <rc><c>N </c><c>   2</c></rc>
    <rc><c>N </c><c>   2</c></rc>
    <rc><c>N </c><c>   2</c></rc>
    <rc><c>N </c><c>   2</c></rc>
    <rc><c>N </c><c>   2</c></rc>
    <rc><c>N </c><c>   2</c></rc>
    <rc><c>N </c><c>   2</c></rc>
    <rc><c>N </c><c>   2</c></rc>
    <rc><c>N </c><c>   2</c></rc>
    <rc><c>N </c><c>   2</c></rc>
    <rc><c>N </c><c>   2</c></rc>
    <rc><c>C </c><c>   3</c></rc>
    <rc><c>C </c><c>   3</c></rc>
    <rc><c>C </c><c>   3</c></rc>
    <rc><c>C </c><c>   3</c></rc>
    <rc><c>C </c><c>   3</c></rc>
    <rc><c>C </c><c>   3</c></rc>
    <rc><c>C </c><c>   3</c></rc>
    <rc><c>C </c><c>   3</c></rc>
    <rc><c>C </c><c>   3</c></rc>
    <rc><c>C </c><c>   3</c></rc>
    <rc><c>C </c><c>   3</c></rc>
    <rc><c>C </c><c>   3</c></rc>
    <rc><c>C </c><c>   3</c></rc>
    <rc><c>C </c><c>   3</c></rc>
    <rc><c>C </c><c>   3</c></rc>
    <rc><c>C </c><c>   3</c></rc>
    <rc><c>C </c><c>   3</c></rc>
    <rc><c>C </c><c>   3</c></rc>
    <rc><c>C </c><c>   3</c></rc>
    <rc><c>C </c><c>   3</c></rc>
    <rc><c>C </c><c>   3</c></rc>
    <rc><c>C </c><c>   3</c></rc>
    <rc><c>C </c><c>   3</c></rc>
    <rc><c>C </c><c>   3</c></rc>
    <rc><c>C </c><c>   3</c></rc>
    <rc><c>C </c><c>   3</c></rc>
    <rc><c>C </c><c>   3</c></rc>
    <rc><c>C </c><c>   3</c></rc>
    <rc><c>C </c><c>   3</c></rc>
    <rc><c>C </c><c>   3</c></rc>
    <rc><c>C </c><c>   3</c></rc>
    <rc><c>C </c><c>   3</c></rc>
    <rc><c>C </c><c>   3</c></rc>
    <rc><c>C </c><c>   3</c></rc>
    <rc><c>C </c><c>   3</c></rc>
    <rc><c>C </c><c>   3</c></rc>
    <rc><c>C </c><c>   3</c></rc>
    <rc><c>C </c><c>   3</c></rc>
    <rc><c>C </c><c>   3</c></rc>
    <rc><c>C </c><c>   3</c></rc>
    <rc><c>C </c><c>   3</c></rc>
    <rc><c>C </c><c>   3</c></rc>
    <rc><c>C </c><c>   3</c></rc>
    <rc><c>C </c><c>   3</c></rc>
    <rc><c>C </c><c>   3</c></rc>
    <rc><c>C </c><c>   3</c></rc>
    <rc><c>C </c><c>   3</c></rc>
    <rc><c>C </c><c>   3</c></rc>
   </set>
  </array>
  <array name="atomtypes" >
   <dimension dim="1">type</dimension>
   <field type="int">atomspertype</field>
   <field type="string">element</field>
   <field>mass</field>
   <field>valence</field>
   <field type="string">pseudopotential</field>
   <set>
    <rc><c>  24</c><c>H </c><c>      1.00000000</c><c>      1.00000000</c><c>  PAW_PBE H 15Jun2001                   </c></rc>
    <rc><c>  18</c><c>N </c><c>     14.00100000</c><c>      5.00000000</c><c>  PAW_PBE N 08Apr2002                   </c></rc>
    <rc><c>  48</c><c>C </c><c>     12.01100000</c><c>      4.00000000</c><c>  PAW_PBE C 08Apr2002                   </c></rc>
   </set>
  </array>
 </atominfo>
 <structure name="initialpos" >
  <crystal>
   <varray name="basis" >
    <v>      29.03673578       0.01168908       0.00000000 </v>
    <v>     -14.50823864      25.20631360       0.00000000 </v>
    <v>       0.00000000       0.00000000      20.00000000 </v>
   </varray>
   <i name="volume">  14641.57312123 </i>
   <varray name="rec_basis" >
    <v>       0.03443115       0.01981787       0.00000000 </v>
    <v>      -0.00001597       0.03966341       0.00000000 </v>
    <v>       0.00000000       0.00000000       0.05000000 </v>
   </varray>
  </crystal>
  <varray name="positions" >
   <v>       0.44349961       0.65297753       0.52459690 </v>
   <v>       0.21196268       0.55755060       0.52566964 </v>
   <v>       0.34747199       0.78864959       0.52295620 </v>
   <v>       0.56066583       0.34894410       0.47860521 </v>
   <v>       0.79058635       0.43901672       0.47822219 </v>
   <v>       0.65130772       0.20935073       0.48027176 </v>
   <v>       0.60072583       0.13553315       0.40257451 </v>
   <v>       0.55966115       0.95636317       0.36665730 </v>
   <v>       0.59656031       0.05360755       0.35962567 </v>
   <v>       0.49941276       0.86989684       0.42166999 </v>
   <v>       0.86468091       0.46138782       0.40081160 </v>
   <v>       0.04411160       0.59963318       0.36485621 </v>
   <v>       0.94685700       0.53898525       0.35738097 </v>
   <v>       0.13076391       0.62671952       0.42111236 </v>
   <v>       0.53778590       0.40024390       0.40055239 </v>
   <v>       0.40014627       0.44260803       0.36475371 </v>
   <v>       0.46035248       0.40530274       0.35740223 </v>
   <v>       0.37370753       0.50257266       0.42065252 </v>
   <v>       0.49519974       0.12103580       0.56336807 </v>
   <v>       0.40417244       0.86948784       0.58733741 </v>
   <v>       0.87945026       0.37299671       0.56455898 </v>
   <v>       0.13055916       0.53415445       0.58965946 </v>
   <v>       0.62847930       0.50471076       0.56199526 </v>
   <v>       0.46736114       0.59540787       0.58821491 </v>
   <v>       0.31188410       0.61193746       0.52564618 </v>
   <v>       0.38891740       0.69841693       0.52422968 </v>
   <v>       0.30223665       0.68892140       0.52453147 </v>
   <v>       0.69153805       0.38700677       0.47930714 </v>
   <v>       0.61282915       0.30178760       0.48031615 </v>
   <v>       0.69827957       0.30834531       0.48037949 </v>
   <v>       0.42679812       0.80727683       0.50698153 </v>
   <v>       0.19315948       0.61789932       0.50820360 </v>
   <v>       0.38301332       0.57400851       0.50741032 </v>
   <v>       0.49078496       0.05093434       0.53333096 </v>
   <v>       0.45158331       0.94235790       0.54351260 </v>
   <v>       0.57147092       0.19056697       0.48659539 </v>
   <v>       0.94949877       0.43847086       0.53410772 </v>
   <v>       0.05777127       0.50811558       0.54485412 </v>
   <v>       0.80974649       0.37836420       0.48625394 </v>
   <v>       0.56287312       0.50956406       0.53215455 </v>
   <v>       0.49315076       0.54846329       0.54343396 </v>
   <v>       0.62164913       0.42856078       0.48504731 </v>
   <v>       0.28270154       0.63605216       0.52489362 </v>
   <v>       0.36482842       0.64523934       0.52453403 </v>
   <v>       0.35548940       0.71798767       0.52370945 </v>
   <v>       0.37735673       0.77591436       0.51907983 </v>
   <v>       0.22464377       0.60002303       0.52102500 </v>
   <v>       0.40094646       0.62326893       0.52023889 </v>
   <v>       0.71933750       0.36139710       0.48000944 </v>
   <v>       0.63840547       0.35507801       0.47987795 </v>
   <v>       0.64489760       0.28067411       0.48075447 </v>
   <v>       0.62166486       0.22252621       0.48200347 </v>
   <v>       0.77756738       0.39634575       0.48081805 </v>
   <v>       0.60344265       0.37842490       0.48050097 </v>
   <v>       0.54906474       0.05662176       0.44197063 </v>
   <v>       0.57070158       0.11199132       0.43997836 </v>
   <v>       0.48797081       0.97037377       0.49559133 </v>
   <v>       0.44703365       0.86169761       0.50253179 </v>
   <v>       0.48597024       0.89050599       0.45509583 </v>
   <v>       0.50688257       0.94557952       0.44991077 </v>
   <v>       0.54621421       0.97655658       0.40080639 </v>
   <v>       0.56646154       0.03003720       0.39690955 </v>
   <v>       0.94372847       0.48960719       0.44107209 </v>
   <v>       0.88832593       0.45562631       0.43887207 </v>
   <v>       0.02995776       0.51582637       0.49596299 </v>
   <v>       0.13866824       0.58369137       0.50353118 </v>
   <v>       0.10998833       0.59315162       0.45507819 </v>
   <v>       0.05487612       0.55889419       0.44956788 </v>
   <v>       0.02391224       0.56644900       0.39952921 </v>
   <v>       0.97039844       0.53303347       0.39537635 </v>
   <v>       0.51051269       0.45195703       0.44031153 </v>
   <v>       0.54415782       0.43007393       0.43818041 </v>
   <v>       0.48511734       0.51271074       0.49477883 </v>
   <v>       0.41726244       0.55372062       0.50259716 </v>
   <v>       0.40750112       0.51544015       0.45436630 </v>
   <v>       0.44169211       0.49445027       0.44878670 </v>
   <v>       0.43359158       0.45559989       0.39910562 </v>
   <v>       0.46675510       0.43513700       0.39501667 </v>
   <v>       0.55253928       0.13614479       0.48460957 </v>
   <v>       0.51087072       0.10274176       0.52922411 </v>
   <v>       0.50927681       0.02724208       0.49115680 </v>
   <v>       0.43207753       0.89061142       0.54663352 </v>
   <v>       0.86421601       0.41393254       0.48425755 </v>
   <v>       0.89768476       0.40647969       0.52981069 </v>
   <v>       0.97311251       0.48005859       0.49121982 </v>
   <v>       0.10956746       0.54041523       0.54826477 </v>
   <v>       0.58629005       0.44777742       0.48300596 </v>
   <v>       0.59455556       0.48931331       0.52784361 </v>
   <v>       0.52076757       0.49139778       0.48991526 </v>
   <v>       0.46084546       0.56801030       0.54697503 </v>
  </varray>
 </structure>
 <calculation>
  <scstep>
   <time name="dav">  270.15  272.76</time>
   <time name="total">  270.44  273.06</time>
   <energy>
    <i name="alphaZ">     29.93031713 </i>
    <i name="ewald">  35322.63988295 </i>
    <i name="hartreedc"> -45168.47754193 </i>
    <i name="XCdc">   1087.66414041 </i>
    <i name="pawpsdc">  29425.84090984 </i>
    <i name="pawaedc"> -29484.13750332 </i>
    <i name="eentropy">     -0.00000000 </i>
    <i name="bandstr">  -4000.44015606 </i>
    <i name="atom">  12124.42584765 </i>
    <i name="e_fr_energy">   -662.55410333 </i>
    <i name="e_wo_entrp">   -662.55410333 </i>
    <i name="e_0_energy">   -662.55410333 </i>
   </energy>
  </scstep>
  <scstep>
   <time name="dav">  299.30  302.07</time>
   <time name="total">  299.32  302.10</time>
   <energy>
    <i name="e_fr_energy">   -662.97859153 </i>
    <i name="e_wo_entrp">   -662.97859153 </i>
    <i name="e_0_energy">   -662.97859153 </i>
   </energy>
  </scstep>
  <scstep>
   <time name="dav">  336.68  339.80</time>
   <time name="total">  336.69  339.81</time>
   <energy>
    <i name="e_fr_energy">   -662.99202771 </i>
    <i name="e_wo_entrp">   -662.99202771 </i>
    <i name="e_0_energy">   -662.99202771 </i>
   </energy>
  </scstep>
  <scstep>
   <time name="dav">  291.60  294.31</time>
   <time name="total">  291.61  294.32</time>
   <energy>
    <i name="e_fr_energy">   -662.99223230 </i>
    <i name="e_wo_entrp">   -662.99223230 </i>
    <i name="e_0_energy">   -662.99223230 </i>
   </energy>
  </scstep>
  <scstep>
   <time name="dav">  285.36  288.01</time>
   <time name="total">  285.36  288.01</time>
   <energy>
    <i name="e_fr_energy">   -662.99224285 </i>
    <i name="e_wo_entrp">   -662.99224285 </i>
    <i name="e_0_energy">   -662.99224285 </i>
   </energy>
  </scstep>
  <scstep>
   <time name="dav">  234.12  236.30</time>
   <time name="total">  234.13  236.30</time>
   <energy>
    <i name="alphaZ">     29.93031713 </i>
    <i name="ewald">  35322.63988295 </i>
    <i name="hartreedc"> -45168.47754193 </i>
    <i name="XCdc">   1087.66414041 </i>
    <i name="pawpsdc">  29425.84090984 </i>
    <i name="pawaedc"> -29484.13750332 </i>
    <i name="eentropy">     -0.00000000 </i>
    <i name="bandstr">  -4000.87829601 </i>
    <i name="atom">  12124.42584765 </i>
    <i name="e_fr_energy">   -662.99224328 </i>
    <i name="e_wo_entrp">   -662.99224328 </i>
    <i name="e_0_energy">   -662.99224328 </i>
   </energy>
  </scstep>
  <structure>
   <crystal>
    <varray name="basis" >
     <v>      29.03673578       0.01168908       0.00000000 </v>
     <v>     -14.50823864      25.20631360       0.00000000 </v>
     <v>       0.00000000       0.00000000      20.00000000 </v>
    </varray>
    <i name="volume">  14641.57312123 </i>
    <varray name="rec_basis" >
     <v>       0.03443115       0.01981787       0.00000000 </v>
     <v>      -0.00001597       0.03966341       0.00000000 </v>
     <v>       0.00000000       0.00000000       0.05000000 </v>
    </varray>
   </crystal>
   <varray name="positions" >
    <v>       0.44349961       0.65297753       0.52459690 </v>
    <v>       0.21196268       0.55755060       0.52566964 </v>
    <v>       0.34747199       0.78864959       0.52295620 </v>
    <v>       0.56066583       0.34894410       0.47860521 </v>
    <v>       0.79058635       0.43901672       0.47822219 </v>
    <v>       0.65130772       0.20935073       0.48027176 </v>
    <v>       0.60072583       0.13553315       0.40257451 </v>
    <v>       0.55966115       0.95636317       0.36665730 </v>
    <v>       0.59656031       0.05360755       0.35962567 </v>
    <v>       0.49941276       0.86989684       0.42166999 </v>
    <v>       0.86468091       0.46138782       0.40081160 </v>
    <v>       0.04411160       0.59963318       0.36485621 </v>
    <v>       0.94685700       0.53898525       0.35738097 </v>
    <v>       0.13076391       0.62671952       0.42111236 </v>
    <v>       0.53778590       0.40024390       0.40055239 </v>
    <v>       0.40014627       0.44260803       0.36475371 </v>
    <v>       0.46035248       0.40530274       0.35740223 </v>
    <v>       0.37370753       0.50257266       0.42065252 </v>
    <v>       0.49519974       0.12103580       0.56336807 </v>
    <v>       0.40417244       0.86948784       0.58733741 </v>
    <v>       0.87945026       0.37299671       0.56455898 </v>
    <v>       0.13055916       0.53415445       0.58965946 </v>
    <v>       0.62847930       0.50471076       0.56199526 </v>
    <v>       0.46736114       0.59540787       0.58821491 </v>
    <v>       0.31188410       0.61193746       0.52564618 </v>
    <v>       0.38891740       0.69841693       0.52422968 </v>
    <v>       0.30223665       0.68892140       0.52453147 </v>
    <v>       0.69153805       0.38700677       0.47930714 </v>
    <v>       0.61282915       0.30178760       0.48031615 </v>
    <v>       0.69827957       0.30834531       0.48037949 </v>
    <v>       0.42679812       0.80727683       0.50698153 </v>
    <v>       0.19315948       0.61789932       0.50820360 </v>
    <v>       0.38301332       0.57400851       0.50741032 </v>
    <v>       0.49078496       0.05093434       0.53333096 </v>
    <v>       0.45158331       0.94235790       0.54351260 </v>
    <v>       0.57147092       0.19056697       0.48659539 </v>
    <v>       0.94949877       0.43847086       0.53410772 </v>
    <v>       0.05777127       0.50811558       0.54485412 </v>
    <v>       0.80974649       0.37836420       0.48625394 </v>
    <v>       0.56287312       0.50956406       0.53215455 </v>
    <v>       0.49315076       0.54846329       0.54343396 </v>
    <v>       0.62164913       0.42856078       0.48504731 </v>
    <v>       0.28270154       0.63605216       0.52489362 </v>
    <v>       0.36482842       0.64523934       0.52453403 </v>
    <v>       0.35548940       0.71798767       0.52370945 </v>
    <v>       0.37735673       0.77591436       0.51907983 </v>
    <v>       0.22464377       0.60002303       0.52102500 </v>
    <v>       0.40094646       0.62326893       0.52023889 </v>
    <v>       0.71933750       0.36139710       0.48000944 </v>
    <v>       0.63840547       0.35507801       0.47987795 </v>
    <v>       0.64489760       0.28067411       0.48075447 </v>
    <v>       0.62166486       0.22252621       0.48200347 </v>
    <v>       0.77756738       0.39634575       0.48081805 </v>
    <v>       0.60344265       0.37842490       0.48050097 </v>
    <v>       0.54906474       0.05662176       0.44197063 </v>
    <v>       0.57070158       0.11199132       0.43997836 </v>
    <v>       0.48797081       0.97037377       0.49559133 </v>
    <v>       0.44703365       0.86169761       0.50253179 </v>
    <v>       0.48597024       0.89050599       0.45509583 </v>
    <v>       0.50688257       0.94557952       0.44991077 </v>
    <v>       0.54621421       0.97655658       0.40080639 </v>
    <v>       0.56646154       0.03003720       0.39690955 </v>
    <v>       0.94372847       0.48960719       0.44107209 </v>
    <v>       0.88832593       0.45562631       0.43887207 </v>
    <v>       0.02995776       0.51582637       0.49596299 </v>
    <v>       0.13866824       0.58369137       0.50353118 </v>
    <v>       0.10998833       0.59315162       0.45507819 </v>
    <v>       0.05487612       0.55889419       0.44956788 </v>
    <v>       0.02391224       0.56644900       0.39952921 </v>
    <v>       0.97039844       0.53303347       0.39537635 </v>
    <v>       0.51051269       0.45195703       0.44031153 </v>
    <v>       0.54415782       0.43007393       0.43818041 </v>
    <v>       0.48511734       0.51271074       0.49477883 </v>
    <v>       0.41726244       0.55372062       0.50259716 </v>
    <v>       0.40750112       0.51544015       0.45436630 </v>
    <v>       0.44169211       0.49445027       0.44878670 </v>
    <v>       0.43359158       0.45559989       0.39910562 </v>
    <v>       0.46675510       0.43513700       0.39501667 </v>
    <v>       0.55253928       0.13614479       0.48460957 </v>
    <v>       0.51087072       0.10274176       0.52922411 </v>
    <v>       0.50927681       0.02724208       0.49115680 </v>
    <v>       0.43207753       0.89061142       0.54663352 </v>
    <v>       0.86421601       0.41393254       0.48425755 </v>
    <v>       0.89768476       0.40647969       0.52981069 </v>
    <v>       0.97311251       0.48005859       0.49121982 </v>
    <v>       0.10956746       0.54041523       0.54826477 </v>
    <v>       0.58629005       0.44777742       0.48300596 </v>
    <v>       0.59455556       0.48931331       0.52784361 </v>
    <v>       0.52076757       0.49139778       0.48991526 </v>
    <v>       0.46084546       0.56801030       0.54697503 </v>
   </varray>
  </structure>
  <varray name="forces" >
   <v>      -0.00113832       0.00137370      -0.00464129 </v>
   <v>      -0.00042664       0.00095000      -0.00144686 </v>
   <v>       0.00174671      -0.00246693      -0.00234697 </v>
   <v>      -0.00163644      -0.00261374       0.00061335 </v>
   <v>      -0.00135023      -0.00177768      -0.00011041 </v>
   <v>       0.00261260       0.00082953       0.00032365 </v>
   <v>       0.00140935       0.00239611       0.00136810 </v>
   <v>       0.00067898       0.00245753       0.00292479 </v>
   <v>       0.00297045       0.00053483       0.00153242 </v>
   <v>      -0.00392155       0.00182394       0.00528839 </v>
   <v>       0.00425727       0.00397462       0.00183875 </v>
   <v>       0.00056295       0.00605445      -0.00179332 </v>
   <v>      -0.00029271       0.00300889       0.00164663 </v>
   <v>      -0.00274705       0.00172293      -0.00053696 </v>
   <v>      -0.00015484      -0.00277491      -0.00046425 </v>
   <v>      -0.00258782      -0.00184704      -0.00129097 </v>
   <v>      -0.00109031      -0.00250997       0.00015861 </v>
   <v>      -0.00038933      -0.00196525       0.00325724 </v>
   <v>       0.00053648      -0.00066689      -0.00099310 </v>
   <v>      -0.00521613      -0.00194387       0.00294119 </v>
   <v>      -0.00203543      -0.00207588      -0.00147048 </v>
   <v>       0.00002746      -0.00139688      -0.00023260 </v>
   <v>       0.00020928       0.00112124       0.00025649 </v>
   <v>      -0.00078106       0.00086842       0.00109236 </v>
   <v>       0.00007683       0.00079028      -0.00848633 </v>
   <v>      -0.00321696      -0.00032268       0.00693576 </v>
   <v>       0.00309490      -0.00029874      -0.00287740 </v>
   <v>      -0.00100933       0.00162851      -0.00322796 </v>
   <v>      -0.00356298       0.00049983      -0.00084991 </v>
   <v>       0.00242789      -0.00189329       0.00083389 </v>
   <v>      -0.00040194      -0.00095090       0.00082375 </v>
   <v>      -0.00314829      -0.00349941      -0.00270056 </v>
   <v>       0.00155891      -0.00058802      -0.00475500 </v>
   <v>      -0.00111020      -0.00077452       0.00253144 </v>
   <v>      -0.00317881       0.00470573       0.00330043 </v>
   <v>       0.00095298       0.00178546       0.00028366 </v>
   <v>       0.00333633       0.00104198       0.00229341 </v>
   <v>       0.00640309       0.00205114       0.00074096 </v>
   <v>       0.00013573       0.00147593       0.00143669 </v>
   <v>      -0.00182723      -0.00386433      -0.00247135 </v>
   <v>       0.00328929      -0.00252061      -0.00159284 </v>
   <v>      -0.00073836       0.00316170      -0.00077100 </v>
   <v>      -0.00774428       0.00159791      -0.00163671 </v>
   <v>      -0.00410717      -0.00365255      -0.00023076 </v>
   <v>      -0.00223647       0.00158369       0.00387110 </v>
   <v>      -0.00007980       0.00010855       0.00049728 </v>
   <v>       0.00206165      -0.00369592      -0.00278883 </v>
   <v>       0.00203873       0.00035377      -0.00457502 </v>
   <v>       0.00403762       0.00550166      -0.00054546 </v>
   <v>       0.00383451      -0.00175712      -0.00109518 </v>
   <v>       0.00171055       0.00080615      -0.00051529 </v>
   <v>       0.00033151      -0.00206724      -0.00102777 </v>
   <v>      -0.00361529      -0.00005023      -0.00030043 </v>
   <v>       0.00231492      -0.00346459      -0.00036926 </v>
   <v>       0.00148653      -0.00224710       0.00225613 </v>
   <v>       0.00297034      -0.00143229      -0.00007189 </v>
   <v>       0.00257135       0.00037840      -0.00274428 </v>
   <v>       0.00548658      -0.00344242      -0.00601501 </v>
   <v>       0.00347016      -0.00031514      -0.00199808 </v>
   <v>       0.00254015       0.00060115      -0.00174210 </v>
   <v>       0.00192514      -0.00296402       0.00124297 </v>
   <v>       0.00218812       0.00128793       0.00045053 </v>
   <v>      -0.00296992       0.00173693      -0.00279901 </v>
   <v>       0.00096788       0.00371673       0.00010965 </v>
   <v>      -0.00016016      -0.00233531      -0.00039936 </v>
   <v>       0.00209825      -0.00164635       0.00678501 </v>
   <v>      -0.00008954       0.00324723       0.00140142 </v>
   <v>       0.00210745       0.00095212       0.00380992 </v>
   <v>      -0.00133166       0.00085466       0.00005586 </v>
   <v>      -0.00125517      -0.00161007       0.00167289 </v>
   <v>       0.00046555       0.00004267      -0.00007894 </v>
   <v>      -0.00177636       0.00245161       0.00187560 </v>
   <v>       0.00225874       0.00074764       0.00271534 </v>
   <v>      -0.00314549       0.00226652      -0.00163629 </v>
   <v>      -0.00500046      -0.00160967       0.00074795 </v>
   <v>      -0.00069338      -0.00137931       0.00375799 </v>
   <v>       0.00278916      -0.00519009      -0.00013802 </v>
   <v>       0.00105298      -0.00074772       0.00317779 </v>
   <v>      -0.00122765       0.00120809       0.00206359 </v>
   <v>      -0.00077189       0.00075599       0.00128992 </v>
   <v>       0.00035813      -0.00183303       0.00021546 </v>
   <v>       0.00034242       0.00021774      -0.00192177 </v>
   <v>      -0.00468567       0.00273511      -0.00631766 </v>
   <v>       0.00139887       0.00043642       0.00249338 </v>
   <v>      -0.00299077      -0.00040623      -0.00099203 </v>
   <v>      -0.00149941      -0.00090707      -0.00281921 </v>
   <v>      -0.00154350      -0.00093972      -0.00173275 </v>
   <v>       0.00152126       0.00124078       0.00246025 </v>
   <v>      -0.00060517       0.00021894       0.00249438 </v>
   <v>      -0.00112487       0.00113956      -0.00031570 </v>
  </varray>
  <varray name="stress" >
   <v>       0.00326484      -0.00071752      -0.00079432 </v>
   <v>      -0.00071752       0.00434063      -0.00051132 </v>
   <v>      -0.00079432      -0.00051132      -0.13124404 </v>
  </varray>
  <energy>
   <i name="e_fr_energy">   -664.52353346 </i>
   <i name="e_wo_entrp">   -664.52353346 </i>
   <i name="e_0_energy">     -0.00000000 </i>
  </energy>
  <time name="totalsc"> 2000.05 2019.58</time>
  <eigenvalues>
   <array>
    <dimension dim="1">band</dimension>
    <dimension dim="2">kpoint</dimension>
    <dimension dim="3">spin</dimension>
    <field>eigene</field>
    <field>occ</field>
    <set>
     <set comment="spin 1">
      <set comment="kpoint 1">
       <r>  -25.9407    1.0000 </r>
       <r>  -25.8347    1.0000 </r>
       <r>  -24.1284    1.0000 </r>
       <r>  -24.1278    1.0000 </r>
       <r>  -24.0564    1.0000 </r>
       <r>  -24.0106    1.0000 </r>
       <r>  -24.0092    1.0000 </r>
       <r>  -23.8797    1.0000 </r>
       <r>  -23.6226    1.0000 </r>
       <r>  -23.6218    1.0000 </r>
       <r>  -23.4822    1.0000 </r>
       <r>  -23.1784    1.0000 </r>
       <r>  -23.1776    1.0000 </r>
       <r>  -23.0683    1.0000 </r>
       <r>  -22.7006    1.0000 </r>
       <r>  -22.6996    1.0000 </r>
       <r>  -22.5863    1.0000 </r>
       <r>  -22.5845    1.0000 </r>
       <r>  -21.1584    1.0000 </r>
       <r>  -21.1577    1.0000 </r>
       <r>  -21.1547    1.0000 </r>
       <r>  -20.0865    1.0000 </r>
       <r>  -20.0843    1.0000 </r>
       <r>  -20.0692    1.0000 </r>
       <r>  -19.8437    1.0000 </r>
       <r>  -19.8425    1.0000 </r>
       <r>  -19.7799    1.0000 </r>
       <r>  -18.9690    1.0000 </r>
       <r>  -18.9671    1.0000 </r>
       <r>  -18.7253    1.0000 </r>
       <r>  -18.4895    1.0000 </r>
       <r>  -18.4881    1.0000 </r>
       <r>  -18.4764    1.0000 </r>
       <r>  -18.1714    1.0000 </r>
       <r>  -18.1708    1.0000 </r>
       <r>  -17.5916    1.0000 </r>
       <r>  -17.5905    1.0000 </r>
       <r>  -17.3326    1.0000 </r>
       <r>  -16.5367    1.0000 </r>
       <r>  -16.3450    1.0000 </r>
       <r>  -16.3433    1.0000 </r>
       <r>  -16.0868    1.0000 </r>
       <r>  -16.0850    1.0000 </r>
       <r>  -16.0400    1.0000 </r>
       <r>  -15.9422    1.0000 </r>
       <r>  -15.7220    1.0000 </r>
       <r>  -15.7210    1.0000 </r>
       <r>  -15.2895    1.0000 </r>
       <r>  -15.1386    1.0000 </r>
       <r>  -15.1378    1.0000 </r>
       <r>  -14.9187    1.0000 </r>
       <r>  -14.5977    1.0000 </r>
       <r>  -14.5958    1.0000 </r>
       <r>  -14.4456    1.0000 </r>
       <r>  -14.1308    1.0000 </r>
       <r>  -14.0161    1.0000 </r>
       <r>  -14.0150    1.0000 </r>
       <r>  -13.3856    1.0000 </r>
       <r>  -13.2602    1.0000 </r>
       <r>  -13.2594    1.0000 </r>
       <r>  -13.1544    1.0000 </r>
       <r>  -13.1530    1.0000 </r>
       <r>  -13.1328    1.0000 </r>
       <r>  -13.0261    1.0000 </r>
       <r>  -12.9155    1.0000 </r>
       <r>  -12.9147    1.0000 </r>
       <r>  -12.5232    1.0000 </r>
       <r>  -12.4516    1.0000 </r>
       <r>  -12.4500    1.0000 </r>
       <r>  -12.3128    1.0000 </r>
       <r>  -12.3118    1.0000 </r>
       <r>  -12.1611    1.0000 </r>
       <r>  -11.9711    1.0000 </r>
       <r>  -11.8400    1.0000 </r>
       <r>  -11.7702    1.0000 </r>
       <r>  -11.7694    1.0000 </r>
       <r>  -11.7352    1.0000 </r>
       <r>  -11.6020    1.0000 </r>
       <r>  -11.4885    1.0000 </r>
       <r>  -11.4078    1.0000 </r>
       <r>  -11.4060    1.0000 </r>
       <r>  -11.2911    1.0000 </r>
       <r>  -10.9972    1.0000 </r>
       <r>  -10.9963    1.0000 </r>
       <r>  -10.8098    1.0000 </r>
       <r>  -10.8069    1.0000 </r>
       <r>  -10.6422    1.0000 </r>
       <r>  -10.6367    1.0000 </r>
       <r>  -10.6359    1.0000 </r>
       <r>  -10.5817    1.0000 </r>
       <r>  -10.4494    1.0000 </r>
       <r>  -10.4482    1.0000 </r>
       <r>  -10.3022    1.0000 </r>
       <r>  -10.2769    1.0000 </r>
       <r>  -10.2757    1.0000 </r>
       <r>   -9.9505    1.0000 </r>
       <r>   -9.9497    1.0000 </r>
       <r>   -9.9340    1.0000 </r>
       <r>   -9.8610    1.0000 </r>
       <r>   -9.8031    1.0000 </r>
       <r>   -9.8002    1.0000 </r>
       <r>   -9.7101    1.0000 </r>
       <r>   -9.6866    1.0000 </r>
       <r>   -9.6864    1.0000 </r>
       <r>   -9.6400    1.0000 </r>
       <r>   -9.6370    1.0000 </r>
       <r>   -9.3416    1.0000 </r>
       <r>   -9.3387    1.0000 </r>
       <r>   -9.2365    1.0000 </r>
       <r>   -9.1671    1.0000 </r>
       <r>   -9.1279    1.0000 </r>
       <r>   -9.1250    1.0000 </r>
       <r>   -9.0907    1.0000 </r>
       <r>   -9.0297    1.0000 </r>
       <r>   -8.7882    1.0000 </r>
       <r>   -8.7865    1.0000 </r>
       <r>   -8.7175    1.0000 </r>
       <r>   -8.5169    1.0000 </r>
       <r>   -8.5139    1.0000 </r>
       <r>   -8.5115    1.0000 </r>
       <r>   -8.4054    1.0000 </r>
       <r>   -8.2722    1.0000 </r>
       <r>   -8.2702    1.0000 </r>
       <r>   -7.9912    1.0000 </r>
       <r>   -7.9898    1.0000 </r>
       <r>   -7.4241    1.0000 </r>
       <r>   -7.4006    1.0000 </r>
       <r>   -7.3989    1.0000 </r>
       <r>   -7.3859    1.0000 </r>
       <r>   -7.2052    1.0000 </r>
       <r>   -7.2046    1.0000 </r>
       <r>   -7.0372    1.0000 </r>
       <r>   -6.9360    1.0000 </r>
       <r>   -6.9348    1.0000 </r>
       <r>   -6.4880    1.0000 </r>
       <r>   -6.4878    1.0000 </r>
       <r>   -6.3894    1.0000 </r>
       <r>   -6.3825    1.0000 </r>
       <r>   -6.3815    1.0000 </r>
       <r>   -6.2586    1.0000 </r>
       <r>   -6.2575    1.0000 </r>
       <r>   -5.9033    1.0000 </r>
       <r>   -5.9013    1.0000 </r>
       <r>   -5.9000    1.0000 </r>
       <r>   -5.8832    1.0000 </r>
       <r>   -5.8695    1.0000 </r>
       <r>   -5.8678    1.0000 </r>
       <r>   -5.6729    1.0000 </r>
       <r>   -5.6699    1.0000 </r>
       <r>   -5.6636    1.0000 </r>
       <r>   -5.3907    1.0000 </r>
       <r>   -5.3737    1.0000 </r>
       <r>   -5.3722    1.0000 </r>
       <r>   -3.7763    0.0000 </r>
       <r>   -3.7732    0.0000 </r>
       <r>   -3.5167    0.0000 </r>
       <r>   -3.5144    0.0000 </r>
       <r>   -2.9752    0.0000 </r>
       <r>   -2.4831    0.0000 </r>
       <r>   -2.4472    0.0000 </r>
       <r>   -2.4467    0.0000 </r>
       <r>   -2.4303    0.0000 </r>
       <r>   -2.1186    0.0000 </r>
       <r>   -2.1182    0.0000 </r>
       <r>   -1.8200    0.0000 </r>
       <r>   -1.3062    0.0000 </r>
       <r>   -1.3056    0.0000 </r>
       <r>   -1.0806    0.0000 </r>
       <r>   -0.7757    0.0000 </r>
       <r>   -0.7737    0.0000 </r>
       <r>   -0.5598    0.0000 </r>
       <r>   -0.3862    0.0000 </r>
       <r>   -0.3077    0.0000 </r>
       <r>   -0.3060    0.0000 </r>
       <r>   -0.2678    0.0000 </r>
       <r>   -0.2667    0.0000 </r>
       <r>   -0.2296    0.0000 </r>
       <r>   -0.2277    0.0000 </r>
       <r>   -0.2099    0.0000 </r>
       <r>    0.0145    0.0000 </r>
       <r>    0.0927    0.0000 </r>
       <r>    0.0933    0.0000 </r>
       <r>    0.2454    0.0000 </r>
       <r>    0.2613    0.0000 </r>
       <r>    0.2624    0.0000 </r>
       <r>    0.3093    0.0000 </r>
       <r>    0.3698    0.0000 </r>
       <r>    0.3716    0.0000 </r>
       <r>    0.4435    0.0000 </r>
       <r>    0.4686    0.0000 </r>
       <r>    0.5013    0.0000 </r>
       <r>    0.5020    0.0000 </r>
       <r>    0.5570    0.0000 </r>
       <r>    0.5862    0.0000 </r>
       <r>    0.5870    0.0000 </r>
       <r>    0.6078    0.0000 </r>
       <r>    0.6797    0.0000 </r>
       <r>    0.6984    0.0000 </r>
       <r>    0.6998    0.0000 </r>
       <r>    0.7313    0.0000 </r>
       <r>    0.7333    0.0000 </r>
       <r>    0.7447    0.0000 </r>
       <r>    0.7489    0.0000 </r>
       <r>    0.7586    0.0000 </r>
       <r>    0.7611    0.0000 </r>
       <r>    0.8497    0.0000 </r>
       <r>    0.8545    0.0000 </r>
       <r>    0.8563    0.0000 </r>
      </set>
      <set comment="kpoint 2">
       <r>  -25.9407    1.0000 </r>
       <r>  -25.8347    1.0000 </r>
       <r>  -24.1284    1.0000 </r>
       <r>  -24.1278    1.0000 </r>
       <r>  -24.0567    1.0000 </r>
       <r>  -24.0106    1.0000 </r>
       <r>  -24.0088    1.0000 </r>
       <r>  -23.8799    1.0000 </r>
       <r>  -23.6224    1.0000 </r>
       <r>  -23.6218    1.0000 </r>
       <r>  -23.4825    1.0000 </r>
       <r>  -23.1784    1.0000 </r>
       <r>  -23.1775    1.0000 </r>
       <r>  -23.0685    1.0000 </r>
       <r>  -22.7006    1.0000 </r>
       <r>  -22.6995    1.0000 </r>
       <r>  -22.5863    1.0000 </r>
       <r>  -22.5845    1.0000 </r>
       <r>  -21.1584    1.0000 </r>
       <r>  -21.1577    1.0000 </r>
       <r>  -21.1547    1.0000 </r>
       <r>  -20.0865    1.0000 </r>
       <r>  -20.0842    1.0000 </r>
       <r>  -20.0692    1.0000 </r>
       <r>  -19.8437    1.0000 </r>
       <r>  -19.8424    1.0000 </r>
       <r>  -19.7800    1.0000 </r>
       <r>  -18.9690    1.0000 </r>
       <r>  -18.9669    1.0000 </r>
       <r>  -18.7259    1.0000 </r>
       <r>  -18.4895    1.0000 </r>
       <r>  -18.4881    1.0000 </r>
       <r>  -18.4764    1.0000 </r>
       <r>  -18.1714    1.0000 </r>
       <r>  -18.1701    1.0000 </r>
       <r>  -17.5934    1.0000 </r>
       <r>  -17.5909    1.0000 </r>
       <r>  -17.3303    1.0000 </r>
       <r>  -16.5393    1.0000 </r>
       <r>  -16.3450    1.0000 </r>
       <r>  -16.3411    1.0000 </r>
       <r>  -16.0868    1.0000 </r>
       <r>  -16.0851    1.0000 </r>
       <r>  -16.0399    1.0000 </r>
       <r>  -15.9422    1.0000 </r>
       <r>  -15.7218    1.0000 </r>
       <r>  -15.7210    1.0000 </r>
       <r>  -15.2914    1.0000 </r>
       <r>  -15.1387    1.0000 </r>
       <r>  -15.1363    1.0000 </r>
       <r>  -14.9187    1.0000 </r>
       <r>  -14.5977    1.0000 </r>
       <r>  -14.5958    1.0000 </r>
       <r>  -14.4455    1.0000 </r>
       <r>  -14.1308    1.0000 </r>
       <r>  -14.0161    1.0000 </r>
       <r>  -14.0154    1.0000 </r>
       <r>  -13.3851    1.0000 </r>
       <r>  -13.2602    1.0000 </r>
       <r>  -13.2593    1.0000 </r>
       <r>  -13.1545    1.0000 </r>
       <r>  -13.1530    1.0000 </r>
       <r>  -13.1328    1.0000 </r>
       <r>  -13.0262    1.0000 </r>
       <r>  -12.9159    1.0000 </r>
       <r>  -12.9151    1.0000 </r>
       <r>  -12.5227    1.0000 </r>
       <r>  -12.4516    1.0000 </r>
       <r>  -12.4499    1.0000 </r>
       <r>  -12.3127    1.0000 </r>
       <r>  -12.3118    1.0000 </r>
       <r>  -12.1613    1.0000 </r>
       <r>  -11.9711    1.0000 </r>
       <r>  -11.8408    1.0000 </r>
       <r>  -11.7702    1.0000 </r>
       <r>  -11.7695    1.0000 </r>
       <r>  -11.7341    1.0000 </r>
       <r>  -11.6020    1.0000 </r>
       <r>  -11.4887    1.0000 </r>
       <r>  -11.4078    1.0000 </r>
       <r>  -11.4059    1.0000 </r>
       <r>  -11.2914    1.0000 </r>
       <r>  -10.9971    1.0000 </r>
       <r>  -10.9960    1.0000 </r>
       <r>  -10.8100    1.0000 </r>
       <r>  -10.8074    1.0000 </r>
       <r>  -10.6431    1.0000 </r>
       <r>  -10.6366    1.0000 </r>
       <r>  -10.6345    1.0000 </r>
       <r>  -10.5818    1.0000 </r>
       <r>  -10.4495    1.0000 </r>
       <r>  -10.4482    1.0000 </r>
       <r>  -10.3023    1.0000 </r>
       <r>  -10.2770    1.0000 </r>
       <r>  -10.2758    1.0000 </r>
       <r>   -9.9505    1.0000 </r>
       <r>   -9.9498    1.0000 </r>
       <r>   -9.9338    1.0000 </r>
       <r>   -9.8610    1.0000 </r>
       <r>   -9.8030    1.0000 </r>
       <r>   -9.8001    1.0000 </r>
       <r>   -9.7101    1.0000 </r>
       <r>   -9.6866    1.0000 </r>
       <r>   -9.6865    1.0000 </r>
       <r>   -9.6398    1.0000 </r>
       <r>   -9.6370    1.0000 </r>
       <r>   -9.3425    1.0000 </r>
       <r>   -9.3394    1.0000 </r>
       <r>   -9.2353    1.0000 </r>
       <r>   -9.1669    1.0000 </r>
       <r>   -9.1279    1.0000 </r>
       <r>   -9.1249    1.0000 </r>
       <r>   -9.0905    1.0000 </r>
       <r>   -9.0295    1.0000 </r>
       <r>   -8.7883    1.0000 </r>
       <r>   -8.7865    1.0000 </r>
       <r>   -8.7175    1.0000 </r>
       <r>   -8.5249    1.0000 </r>
       <r>   -8.5137    1.0000 </r>
       <r>   -8.5040    1.0000 </r>
       <r>   -8.4055    1.0000 </r>
       <r>   -8.2722    1.0000 </r>
       <r>   -8.2697    1.0000 </r>
       <r>   -7.9912    1.0000 </r>
       <r>   -7.9901    1.0000 </r>
       <r>   -7.4241    1.0000 </r>
       <r>   -7.4007    1.0000 </r>
       <r>   -7.3992    1.0000 </r>
       <r>   -7.3853    1.0000 </r>
       <r>   -7.2052    1.0000 </r>
       <r>   -7.2049    1.0000 </r>
       <r>   -7.0369    1.0000 </r>
       <r>   -6.9361    1.0000 </r>
       <r>   -6.9349    1.0000 </r>
       <r>   -6.4880    1.0000 </r>
       <r>   -6.4878    1.0000 </r>
       <r>   -6.3906    1.0000 </r>
       <r>   -6.3822    1.0000 </r>
       <r>   -6.3804    1.0000 </r>
       <r>   -6.2586    1.0000 </r>
       <r>   -6.2575    1.0000 </r>
       <r>   -5.9033    1.0000 </r>
       <r>   -5.9013    1.0000 </r>
       <r>   -5.9000    1.0000 </r>
       <r>   -5.8832    1.0000 </r>
       <r>   -5.8695    1.0000 </r>
       <r>   -5.8678    1.0000 </r>
       <r>   -5.6729    1.0000 </r>
       <r>   -5.6699    1.0000 </r>
       <r>   -5.6636    1.0000 </r>
       <r>   -5.3907    1.0000 </r>
       <r>   -5.3737    1.0000 </r>
       <r>   -5.3722    1.0000 </r>
       <r>   -3.7762    0.0000 </r>
       <r>   -3.7730    0.0000 </r>
       <r>   -3.5169    0.0000 </r>
       <r>   -3.5147    0.0000 </r>
       <r>   -2.9744    0.0000 </r>
       <r>   -2.4839    0.0000 </r>
       <r>   -2.4472    0.0000 </r>
       <r>   -2.4467    0.0000 </r>
       <r>   -2.4307    0.0000 </r>
       <r>   -2.1183    0.0000 </r>
       <r>   -2.1174    0.0000 </r>
       <r>   -1.8202    0.0000 </r>
       <r>   -1.3061    0.0000 </r>
       <r>   -1.3055    0.0000 </r>
       <r>   -1.0813    0.0000 </r>
       <r>   -0.7757    0.0000 </r>
       <r>   -0.7730    0.0000 </r>
       <r>   -0.5600    0.0000 </r>
       <r>   -0.3861    0.0000 </r>
       <r>   -0.3077    0.0000 </r>
       <r>   -0.3059    0.0000 </r>
       <r>   -0.2681    0.0000 </r>
       <r>   -0.2669    0.0000 </r>
       <r>   -0.2300    0.0000 </r>
       <r>   -0.2279    0.0000 </r>
       <r>   -0.2089    0.0000 </r>
       <r>    0.0142    0.0000 </r>
       <r>    0.0928    0.0000 </r>
       <r>    0.0936    0.0000 </r>
       <r>    0.2443    0.0000 </r>
       <r>    0.2613    0.0000 </r>
       <r>    0.2625    0.0000 </r>
       <r>    0.3099    0.0000 </r>
       <r>    0.3699    0.0000 </r>
       <r>    0.3716    0.0000 </r>
       <r>    0.4430    0.0000 </r>
       <r>    0.4689    0.0000 </r>
       <r>    0.5013    0.0000 </r>
       <r>    0.5020    0.0000 </r>
       <r>    0.5572    0.0000 </r>
       <r>    0.5866    0.0000 </r>
       <r>    0.5871    0.0000 </r>
       <r>    0.6081    0.0000 </r>
       <r>    0.6787    0.0000 </r>
       <r>    0.6982    0.0000 </r>
       <r>    0.6995    0.0000 </r>
       <r>    0.7310    0.0000 </r>
       <r>    0.7329    0.0000 </r>
       <r>    0.7440    0.0000 </r>
       <r>    0.7487    0.0000 </r>
       <r>    0.7605    0.0000 </r>
       <r>    0.7617    0.0000 </r>
       <r>    0.8494    0.0000 </r>
       <r>    0.8546    0.0000 </r>
       <r>    0.8564    0.0000 </r>
      </set>
      <set comment="kpoint 3">
       <r>  -25.9407    1.0000 </r>
       <r>  -25.8347    1.0000 </r>
       <r>  -24.1284    1.0000 </r>
       <r>  -24.1277    1.0000 </r>
       <r>  -24.0575    1.0000 </r>
       <r>  -24.0106    1.0000 </r>
       <r>  -24.0078    1.0000 </r>
       <r>  -23.8805    1.0000 </r>
       <r>  -23.6218    1.0000 </r>
       <r>  -23.6217    1.0000 </r>
       <r>  -23.4831    1.0000 </r>
       <r>  -23.1783    1.0000 </r>
       <r>  -23.1769    1.0000 </r>
       <r>  -23.0689    1.0000 </r>
       <r>  -22.7005    1.0000 </r>
       <r>  -22.6995    1.0000 </r>
       <r>  -22.5863    1.0000 </r>
       <r>  -22.5845    1.0000 </r>
       <r>  -21.1584    1.0000 </r>
       <r>  -21.1577    1.0000 </r>
       <r>  -21.1547    1.0000 </r>
       <r>  -20.0865    1.0000 </r>
       <r>  -20.0842    1.0000 </r>
       <r>  -20.0693    1.0000 </r>
       <r>  -19.8437    1.0000 </r>
       <r>  -19.8422    1.0000 </r>
       <r>  -19.7803    1.0000 </r>
       <r>  -18.9690    1.0000 </r>
       <r>  -18.9660    1.0000 </r>
       <r>  -18.7275    1.0000 </r>
       <r>  -18.4895    1.0000 </r>
       <r>  -18.4880    1.0000 </r>
       <r>  -18.4764    1.0000 </r>
       <r>  -18.1714    1.0000 </r>
       <r>  -18.1678    1.0000 </r>
       <r>  -17.5998    1.0000 </r>
       <r>  -17.5910    1.0000 </r>
       <r>  -17.3234    1.0000 </r>
       <r>  -16.5469    1.0000 </r>
       <r>  -16.3450    1.0000 </r>
       <r>  -16.3348    1.0000 </r>
       <r>  -16.0869    1.0000 </r>
       <r>  -16.0852    1.0000 </r>
       <r>  -16.0398    1.0000 </r>
       <r>  -15.9423    1.0000 </r>
       <r>  -15.7211    1.0000 </r>
       <r>  -15.7208    1.0000 </r>
       <r>  -15.2967    1.0000 </r>
       <r>  -15.1387    1.0000 </r>
       <r>  -15.1320    1.0000 </r>
       <r>  -14.9188    1.0000 </r>
       <r>  -14.5977    1.0000 </r>
       <r>  -14.5956    1.0000 </r>
       <r>  -14.4452    1.0000 </r>
       <r>  -14.1309    1.0000 </r>
       <r>  -14.0165    1.0000 </r>
       <r>  -14.0162    1.0000 </r>
       <r>  -13.3835    1.0000 </r>
       <r>  -13.2600    1.0000 </r>
       <r>  -13.2588    1.0000 </r>
       <r>  -13.1545    1.0000 </r>
       <r>  -13.1531    1.0000 </r>
       <r>  -13.1330    1.0000 </r>
       <r>  -13.0265    1.0000 </r>
       <r>  -12.9177    1.0000 </r>
       <r>  -12.9154    1.0000 </r>
       <r>  -12.5214    1.0000 </r>
       <r>  -12.4514    1.0000 </r>
       <r>  -12.4495    1.0000 </r>
       <r>  -12.3125    1.0000 </r>
       <r>  -12.3118    1.0000 </r>
       <r>  -12.1620    1.0000 </r>
       <r>  -11.9710    1.0000 </r>
       <r>  -11.8431    1.0000 </r>
       <r>  -11.7704    1.0000 </r>
       <r>  -11.7698    1.0000 </r>
       <r>  -11.7310    1.0000 </r>
       <r>  -11.6020    1.0000 </r>
       <r>  -11.4894    1.0000 </r>
       <r>  -11.4079    1.0000 </r>
       <r>  -11.4055    1.0000 </r>
       <r>  -11.2920    1.0000 </r>
       <r>  -10.9968    1.0000 </r>
       <r>  -10.9951    1.0000 </r>
       <r>  -10.8106    1.0000 </r>
       <r>  -10.8086    1.0000 </r>
       <r>  -10.6447    1.0000 </r>
       <r>  -10.6364    1.0000 </r>
       <r>  -10.6312    1.0000 </r>
       <r>  -10.5819    1.0000 </r>
       <r>  -10.4498    1.0000 </r>
       <r>  -10.4484    1.0000 </r>
       <r>  -10.3024    1.0000 </r>
       <r>  -10.2770    1.0000 </r>
       <r>  -10.2761    1.0000 </r>
       <r>   -9.9506    1.0000 </r>
       <r>   -9.9502    1.0000 </r>
       <r>   -9.9334    1.0000 </r>
       <r>   -9.8608    1.0000 </r>
       <r>   -9.8028    1.0000 </r>
       <r>   -9.7999    1.0000 </r>
       <r>   -9.7102    1.0000 </r>
       <r>   -9.6866    1.0000 </r>
       <r>   -9.6865    1.0000 </r>
       <r>   -9.6392    1.0000 </r>
       <r>   -9.6370    1.0000 </r>
       <r>   -9.3464    1.0000 </r>
       <r>   -9.3400    1.0000 </r>
       <r>   -9.2319    1.0000 </r>
       <r>   -9.1666    1.0000 </r>
       <r>   -9.1279    1.0000 </r>
       <r>   -9.1248    1.0000 </r>
       <r>   -9.0902    1.0000 </r>
       <r>   -9.0289    1.0000 </r>
       <r>   -8.7889    1.0000 </r>
       <r>   -8.7866    1.0000 </r>
       <r>   -8.7174    1.0000 </r>
       <r>   -8.5352    1.0000 </r>
       <r>   -8.5137    1.0000 </r>
       <r>   -8.4947    1.0000 </r>
       <r>   -8.4055    1.0000 </r>
       <r>   -8.2722    1.0000 </r>
       <r>   -8.2683    1.0000 </r>
       <r>   -7.9914    1.0000 </r>
       <r>   -7.9911    1.0000 </r>
       <r>   -7.4241    1.0000 </r>
       <r>   -7.4007    1.0000 </r>
       <r>   -7.4002    1.0000 </r>
       <r>   -7.3836    1.0000 </r>
       <r>   -7.2059    1.0000 </r>
       <r>   -7.2052    1.0000 </r>
       <r>   -7.0362    1.0000 </r>
       <r>   -6.9361    1.0000 </r>
       <r>   -6.9352    1.0000 </r>
       <r>   -6.4881    1.0000 </r>
       <r>   -6.4877    1.0000 </r>
       <r>   -6.3932    1.0000 </r>
       <r>   -6.3821    1.0000 </r>
       <r>   -6.3777    1.0000 </r>
       <r>   -6.2586    1.0000 </r>
       <r>   -6.2578    1.0000 </r>
       <r>   -5.9033    1.0000 </r>
       <r>   -5.9013    1.0000 </r>
       <r>   -5.9000    1.0000 </r>
       <r>   -5.8832    1.0000 </r>
       <r>   -5.8696    1.0000 </r>
       <r>   -5.8678    1.0000 </r>
       <r>   -5.6729    1.0000 </r>
       <r>   -5.6699    1.0000 </r>
       <r>   -5.6637    1.0000 </r>
       <r>   -5.3907    1.0000 </r>
       <r>   -5.3737    1.0000 </r>
       <r>   -5.3722    1.0000 </r>
       <r>   -3.7762    0.0000 </r>
       <r>   -3.7724    0.0000 </r>
       <r>   -3.5179    0.0000 </r>
       <r>   -3.5153    0.0000 </r>
       <r>   -2.9721    0.0000 </r>
       <r>   -2.4863    0.0000 </r>
       <r>   -2.4472    0.0000 </r>
       <r>   -2.4467    0.0000 </r>
       <r>   -2.4320    0.0000 </r>
       <r>   -2.1183    0.0000 </r>
       <r>   -2.1143    0.0000 </r>
       <r>   -1.8210    0.0000 </r>
       <r>   -1.3060    0.0000 </r>
       <r>   -1.3051    0.0000 </r>
       <r>   -1.0833    0.0000 </r>
       <r>   -0.7757    0.0000 </r>
       <r>   -0.7711    0.0000 </r>
       <r>   -0.5605    0.0000 </r>
       <r>   -0.3860    0.0000 </r>
       <r>   -0.3077    0.0000 </r>
       <r>   -0.3058    0.0000 </r>
       <r>   -0.2691    0.0000 </r>
       <r>   -0.2672    0.0000 </r>
       <r>   -0.2312    0.0000 </r>
       <r>   -0.2281    0.0000 </r>
       <r>   -0.2061    0.0000 </r>
       <r>    0.0130    0.0000 </r>
       <r>    0.0932    0.0000 </r>
       <r>    0.0944    0.0000 </r>
       <r>    0.2416    0.0000 </r>
       <r>    0.2591    0.0000 </r>
       <r>    0.2648    0.0000 </r>
       <r>    0.3119    0.0000 </r>
       <r>    0.3701    0.0000 </r>
       <r>    0.3719    0.0000 </r>
       <r>    0.4417    0.0000 </r>
       <r>    0.4695    0.0000 </r>
       <r>    0.5012    0.0000 </r>
       <r>    0.5025    0.0000 </r>
       <r>    0.5579    0.0000 </r>
       <r>    0.5865    0.0000 </r>
       <r>    0.5884    0.0000 </r>
       <r>    0.6087    0.0000 </r>
       <r>    0.6760    0.0000 </r>
       <r>    0.6974    0.0000 </r>
       <r>    0.6987    0.0000 </r>
       <r>    0.7300    0.0000 </r>
       <r>    0.7319    0.0000 </r>
       <r>    0.7425    0.0000 </r>
       <r>    0.7484    0.0000 </r>
       <r>    0.7635    0.0000 </r>
       <r>    0.7653    0.0000 </r>
       <r>    0.8482    0.0000 </r>
       <r>    0.8551    0.0000 </r>
       <r>    0.8572    0.0000 </r>
      </set>
      <set comment="kpoint 4">
       <r>  -25.9407    1.0000 </r>
       <r>  -25.8347    1.0000 </r>
       <r>  -24.1283    1.0000 </r>
       <r>  -24.1275    1.0000 </r>
       <r>  -24.0588    1.0000 </r>
       <r>  -24.0106    1.0000 </r>
       <r>  -24.0060    1.0000 </r>
       <r>  -23.8815    1.0000 </r>
       <r>  -23.6218    1.0000 </r>
       <r>  -23.6206    1.0000 </r>
       <r>  -23.4842    1.0000 </r>
       <r>  -23.1783    1.0000 </r>
       <r>  -23.1759    1.0000 </r>
       <r>  -23.0697    1.0000 </r>
       <r>  -22.7004    1.0000 </r>
       <r>  -22.6995    1.0000 </r>
       <r>  -22.5864    1.0000 </r>
       <r>  -22.5845    1.0000 </r>
       <r>  -21.1584    1.0000 </r>
       <r>  -21.1577    1.0000 </r>
       <r>  -21.1547    1.0000 </r>
       <r>  -20.0865    1.0000 </r>
       <r>  -20.0841    1.0000 </r>
       <r>  -20.0694    1.0000 </r>
       <r>  -19.8436    1.0000 </r>
       <r>  -19.8418    1.0000 </r>
       <r>  -19.7808    1.0000 </r>
       <r>  -18.9689    1.0000 </r>
       <r>  -18.9647    1.0000 </r>
[...]
       <r>   -25.0193     0.0000     4.0000 </r>
       <r>   -24.9209     0.0000     4.0000 </r>
       <r>   -24.8225     0.0000     4.0000 </r>
       <r>   -24.7241     0.0000     4.0000 </r>
       <r>   -24.6257     0.0000     4.0000 </r>
       <r>   -24.5273     0.0000     4.0000 </r>
       <r>   -24.4289     0.0000     4.0000 </r>
       <r>   -24.3305     0.0000     4.0000 </r>
       <r>   -24.2321     0.0000     4.0000 </r>
       <r>   -24.1337     5.8865     4.5792 </r>
       <r>   -24.0353    20.3267    10.0002 </r>
       <r>   -23.9369    41.4138    14.0756 </r>
       <r>   -23.8385    10.5001    16.0000 </r>
       <r>   -23.7401     0.0000    16.0000 </r>
       <r>   -23.6417     0.0602    16.0059 </r>
       <r>   -23.5433    42.2088    20.1593 </r>
       <r>   -23.4449    10.4996    22.0000 </r>
       <r>   -23.3465     0.0000    22.0000 </r>
       <r>   -23.2481     0.0000    22.0000 </r>
       <r>   -23.1497    29.0410    24.8577 </r>
       <r>   -23.0513    24.7036    27.9980 </r>
       <r>   -22.9529     0.0000    28.0000 </r>
       <r>   -22.8545     0.0000    28.0000 </r>
       <r>   -22.7561     0.0000    28.0000 </r>
       <r>   -22.6577    40.6498    32.0000 </r>
       <r>   -22.5593    40.6458    35.9996 </r>
       <r>   -22.4609     0.0000    36.0000 </r>
       <r>   -22.3625     0.0000    36.0000 </r>
       <r>   -22.2641     0.0000    36.0000 </r>
       <r>   -22.1657     0.0000    36.0000 </r>
       <r>   -22.0673     0.0000    36.0000 </r>
       <r>   -21.9689     0.0000    36.0000 </r>
       <r>   -21.8705     0.0000    36.0000 </r>
       <r>   -21.7721     0.0000    36.0000 </r>
       <r>   -21.6737     0.0000    36.0000 </r>
       <r>   -21.5753     0.0000    36.0000 </r>
       <r>   -21.4769     0.0000    36.0000 </r>
       <r>   -21.3785     0.0000    36.0000 </r>
       <r>   -21.2801     0.0000    36.0000 </r>
       <r>   -21.1817     0.0185    36.0018 </r>
       <r>   -21.0833    60.9563    42.0000 </r>
       <r>   -20.9849     0.0000    42.0000 </r>
       <r>   -20.8865     0.0000    42.0000 </r>
       <r>   -20.7881     0.0000    42.0000 </r>
       <r>   -20.6897     0.0000    42.0000 </r>
       <r>   -20.5913     0.0000    42.0000 </r>
       <r>   -20.4929     0.0000    42.0000 </r>
       <r>   -20.3945     0.0000    42.0000 </r>
       <r>   -20.2961     0.0000    42.0000 </r>
       <r>   -20.1977     0.0000    42.0000 </r>
       <r>   -20.0993     0.8258    42.0813 </r>
       <r>   -20.0009    31.1340    48.0000 </r>
       <r>   -19.9025     0.0000    48.0000 </r>
       <r>   -19.8041    45.6644    52.4934 </r>
       <r>   -19.7057     5.0761    54.0000 </r>
       <r>   -19.6073     0.0000    54.0000 </r>
       <r>   -19.5088     0.0000    54.0000 </r>
       <r>   -19.4104     0.0000    54.0000 </r>
       <r>   -19.3120     0.0000    54.0000 </r>
       <r>   -19.2136     0.0000    54.0000 </r>
       <r>   -19.1152     0.0000    54.0000 </r>
       <r>   -19.0168     0.0000    54.0000 </r>
       <r>   -18.9184    29.5889    56.9116 </r>
       <r>   -18.8200    15.4763    58.8566 </r>
       <r>   -18.7216     8.5373    59.9402 </r>
       <r>   -18.6232     0.0000    60.0000 </r>
       <r>   -18.5248     0.0000    60.0000 </r>
       <r>   -18.4264    60.9748    66.0000 </r>
       <r>   -18.3280     0.0000    66.0000 </r>
       <r>   -18.2296     0.0000    66.0000 </r>
       <r>   -18.1312    25.3638    68.4958 </r>
       <r>   -18.0328     4.0609    68.9997 </r>
       <r>   -17.9344     8.8001    69.9998 </r>
       <r>   -17.8360     8.5658    70.9430 </r>
       <r>   -17.7376     2.8397    71.3128 </r>
       <r>   -17.6392     2.8891    71.6510 </r>
       <r>   -17.5408    23.0347    74.0000 </r>
       <r>   -17.4424     0.0000    74.0000 </r>
       <r>   -17.3440     0.0523    74.0051 </r>
       <r>   -17.2456     3.4240    74.4703 </r>
       <r>   -17.1472     2.6853    74.7644 </r>
       <r>   -17.0488     3.6057    75.1549 </r>
       <r>   -16.9504     5.8919    75.9800 </r>
       <r>   -16.8520     5.2778    76.5193 </r>
       <r>   -16.7536     4.6651    77.1593 </r>
       <r>   -16.6552     2.5140    77.4474 </r>
       <r>   -16.5568     2.9596    77.7912 </r>
       <r>   -16.4584     0.6760    78.0000 </r>
       <r>   -16.3600     0.2973    78.0293 </r>
       <r>   -16.2616     4.5735    80.5169 </r>
       <r>   -16.1632     7.2817    81.3166 </r>
       <r>   -16.0648    40.6253    85.9976 </r>
       <r>   -15.9664    20.4212    88.0096 </r>
       <r>   -15.8680     9.8107    90.0000 </r>
       <r>   -15.7696     0.0000    90.0000 </r>
       <r>   -15.6712    29.3536    92.8884 </r>
       <r>   -15.5728     9.1397    94.0000 </r>
       <r>   -15.4744     9.9775    94.9818 </r>
       <r>   -15.3760     3.8209    95.4428 </r>
       <r>   -15.2776     5.0317    95.9952 </r>
       <r>   -15.1792     0.0000    96.0000 </r>
       <r>   -15.0808    25.6818    98.5271 </r>
       <r>   -14.9824    13.8868   100.0000 </r>
       <r>   -14.8840    20.3249   102.0000 </r>
       <r>   -14.7856     0.0000   102.0000 </r>
       <r>   -14.6872     0.0000   102.0000 </r>
       <r>   -14.5888    28.8736   104.8412 </r>
       <r>   -14.4904     0.0000   106.0000 </r>
       <r>   -14.3920    20.3249   108.0000 </r>
       <r>   -14.2936     0.0000   108.0000 </r>
       <r>   -14.1952     0.0000   108.0000 </r>
       <r>   -14.0968    20.3259   110.0001 </r>
       <r>   -13.9984    40.5821   113.9934 </r>
       <r>   -13.9000     0.0000   114.0000 </r>
       <r>   -13.8016     0.0000   114.0000 </r>
       <r>   -13.7032     0.0000   114.0000 </r>
       <r>   -13.6048     0.0000   114.0000 </r>
       <r>   -13.5064     0.0000   114.0000 </r>
       <r>   -13.4080     0.0011   114.0001 </r>
       <r>   -13.3096    11.9377   115.1748 </r>
       <r>   -13.2112    42.8838   119.9536 </r>
       <r>   -13.1128    60.9651   125.9990 </r>
       <r>   -13.0144    22.5505   128.2190 </r>
       <r>   -12.9160    25.0402   131.5307 </r>
       <r>   -12.8176     0.0000   132.0000 </r>
       <r>   -12.7192     0.0000   132.0000 </r>
       <r>   -12.6208     0.0000   132.0000 </r>
       <r>   -12.5224     1.3660   132.1344 </r>
       <r>   -12.4240    52.7402   137.6898 </r>
       <r>   -12.3256     2.6851   138.2642 </r>
       <r>   -12.2271    19.8087   142.3830 </r>
       <r>   -12.1287    10.1611   144.0000 </r>
       <r>   -12.0303     0.0000   144.0000 </r>
       <r>   -11.9319    20.5041   146.0176 </r>
       <r>   -11.8335    12.9077   147.9711 </r>
       <r>   -11.7351    41.5172   152.0853 </r>
       <r>   -11.6367     7.7342   153.0612 </r>
       <r>   -11.5383    26.9996   156.3571 </r>
       <r>   -11.4399     8.8059   158.0000 </r>
       <r>   -11.3415    42.3237   162.1647 </r>
       <r>   -11.2431     9.4819   164.0000 </r>
       <r>   -11.1447     0.0000   164.0000 </r>
       <r>   -11.0463     0.0000   164.0000 </r>
       <r>   -10.9479    29.4464   166.8976 </r>
       <r>   -10.8495    22.9265   169.3895 </r>
       <r>   -10.7511    15.5752   172.0000 </r>
       <r>   -10.6527     3.2076   172.3156 </r>
       <r>   -10.5543    48.6745   178.9910 </r>
       <r>   -10.4559    27.7895   182.3683 </r>
       <r>   -10.3575     0.0000   184.0000 </r>
       <r>   -10.2591    60.8628   189.9890 </r>
       <r>   -10.1607     0.0000   190.0000 </r>
       <r>   -10.0623     0.0000   190.0000 </r>
       <r>    -9.9639     2.6615   190.2619 </r>
       <r>    -9.8655    21.9989   196.1647 </r>
       <r>    -9.7671    39.8884   201.9251 </r>
       <r>    -9.6687    60.8104   207.9838 </r>
       <r>    -9.5703    37.2175   211.6623 </r>
       <r>    -9.4719    10.9452   213.0770 </r>
       <r>    -9.3735     4.5300   213.6458 </r>
       <r>    -9.2751    22.6954   216.0000 </r>
       <r>    -9.1767    17.9964   217.7709 </r>
       <r>    -9.0783    63.6249   224.8285 </r>
       <r>    -8.9799     8.8266   226.8686 </r>
       <r>    -8.8815    11.7265   228.1873 </r>
       <r>    -8.7831    28.9640   231.3505 </r>
       <r>    -8.6847    20.3271   234.0002 </r>
       <r>    -8.5863    15.6342   235.5387 </r>
       <r>    -8.4879    26.1574   238.2074 </r>
       <r>    -8.3895    36.8253   241.9904 </r>
       <r>    -8.2911     0.0672   242.0066 </r>
       <r>    -8.1927    29.4628   244.9058 </r>
       <r>    -8.0943    12.5452   246.2681 </r>
       <r>    -7.9959    16.2760   248.2354 </r>
       <r>    -7.8975     0.0000   250.0000 </r>
       <r>    -7.7991     0.0000   250.0000 </r>
       <r>    -7.7007     0.0000   250.0000 </r>
       <r>    -7.6023     0.0000   250.0000 </r>
       <r>    -7.5039     0.0000   250.0000 </r>
       <r>    -7.4055    38.7166   253.8098 </r>
       <r>    -7.3071    17.2790   257.7007 </r>
       <r>    -7.2087    24.2599   260.3874 </r>
       <r>    -7.1103     0.0000   262.0000 </r>
       <r>    -7.0119     7.7214   262.7598 </r>
       <r>    -6.9135    46.3809   267.9979 </r>
       <r>    -6.8151     0.0000   268.0000 </r>
       <r>    -6.7167     0.0000   268.0000 </r>
       <r>    -6.6183     0.0000   268.0000 </r>
       <r>    -6.5199     0.0001   268.0000 </r>
       <r>    -6.4215    48.1066   272.7338 </r>
       <r>    -6.3231    41.8508   277.7517 </r>
       <r>    -6.2247    40.6498   282.0000 </r>
       <r>    -6.1263     0.0000   282.0000 </r>
       <r>    -6.0279     0.0000   282.0000 </r>
       <r>    -5.9295     0.0032   282.0003 </r>
       <r>    -5.8311   121.9464   294.0000 </r>
       <r>    -5.7327     0.0000   294.0000 </r>
       <r>    -5.6343    60.9746   300.0000 </r>
       <r>    -5.5359     0.0000   300.0000 </r>
       <r>    -5.4375     0.0000   300.0000 </r>
       <r>    -5.3391    60.9747   306.0000 </r>
       <r>    -5.2407     0.0000   306.0000 </r>
       <r>    -5.1423     0.0000   306.0000 </r>
       <r>    -5.0439     0.0000   306.0000 </r>
       <r>    -4.9454     0.0000   306.0000 </r>
       <r>    -4.8470     0.0000   306.0000 </r>
       <r>    -4.7486     0.0000   306.0000 </r>
       <r>    -4.6502     0.0000   306.0000 </r>
       <r>    -4.5518     0.0000   306.0000 </r>
       <r>    -4.4534     0.0000   306.0000 </r>
       <r>    -4.3550     0.0000   306.0000 </r>
       <r>    -4.2566     0.0000   306.0000 </r>
       <r>    -4.1582     0.0000   306.0000 </r>
       <r>    -4.0598     0.0000   306.0000 </r>
       <r>    -3.9614     0.0000   306.0000 </r>
       <r>    -3.8630     0.0000   306.0000 </r>
       <r>    -3.7646    23.1409   308.2771 </r>
       <r>    -3.6662    12.5322   310.0000 </r>
       <r>    -3.5678    12.6777   311.2475 </r>
       <r>    -3.4694    26.0832   314.0000 </r>
       <r>    -3.3710     0.0000   314.0000 </r>
       <r>    -3.2726     0.0000   314.0000 </r>
       <r>    -3.1742     0.0000   314.0000 </r>
       <r>    -3.0758     0.0000   314.0000 </r>
       <r>    -2.9774     0.6796   314.0669 </r>
       <r>    -2.8790     4.7354   314.7994 </r>
       <r>    -2.7806     9.4768   315.7993 </r>
       <r>    -2.6822     4.5073   316.4435 </r>
       <r>    -2.5838     6.0093   317.2583 </r>
       <r>    -2.4854     5.5125   317.8758 </r>
       <r>    -2.3870    60.9748   324.0000 </r>
       <r>    -2.2886     0.0000   324.0000 </r>
       <r>    -2.1902     0.0000   324.0000 </r>
       <r>    -2.0918    24.0097   326.3626 </r>
       <r>    -1.9934     4.4135   326.9343 </r>
       <r>    -1.8950    13.9490   328.4395 </r>
       <r>    -1.7966    10.4993   329.9999 </r>
       <r>    -1.6982     0.0000   330.0000 </r>
       <r>    -1.5998     0.0000   330.0000 </r>
       <r>    -1.5014     0.0000   330.0000 </r>
       <r>    -1.4030     0.0000   330.0000 </r>
       <r>    -1.3046    13.6815   331.3463 </r>
       <r>    -1.2062    15.4708   334.2224 </r>
       <r>    -1.1078     8.9673   335.5496 </r>
       <r>    -1.0094     2.7081   336.0000 </r>
       <r>    -0.9110     0.0000   336.0000 </r>
       <r>    -0.8126     0.0000   336.0000 </r>
       <r>    -0.7142    27.6131   338.7172 </r>
       <r>    -0.6158    16.0171   340.4428 </r>
       <r>    -0.5174     9.8222   342.0000 </r>
       <r>    -0.4190     0.0000   342.0000 </r>
       <r>    -0.3206    25.9055   344.5491 </r>
       <r>    -0.2222    76.9317   355.5702 </r>
       <r>    -0.1238    12.2761   357.4081 </r>
       <r>    -0.0254    12.3258   359.2129 </r>
       <r>     0.0730     5.7671   360.0011 </r>
       <r>     0.1714    48.6585   364.7891 </r>
       <r>     0.2698    26.9107   368.3152 </r>
       <r>     0.3682    27.5974   372.3165 </r>
       <r>     0.4666    39.4116   378.5452 </r>
       <r>     0.5650    52.1249   385.7297 </r>
       <r>     0.6634    71.3728   394.5908 </r>
       <r>     0.7618   102.3213   405.8360 </r>
       <r>     0.8602    59.6238   413.2009 </r>
       <r>     0.9586     9.8178   416.0000 </r>
       <r>     1.0570     0.0000   416.0000 </r>
       <r>     1.1554     0.0000   416.0000 </r>
       <r>     1.2538     0.0000   416.0000 </r>
       <r>     1.3522     0.0000   416.0000 </r>
       <r>     1.4506     0.0000   416.0000 </r>
       <r>     1.5490     0.0000   416.0000 </r>
       <r>     1.6474     0.0000   416.0000 </r>
       <r>     1.7458     0.0000   416.0000 </r>
       <r>     1.8442     0.0000   416.0000 </r>
       <r>     1.9426     0.0000   416.0000 </r>
       <r>     2.0410     0.0000   416.0000 </r>
       <r>     2.1394     0.0000   416.0000 </r>
       <r>     2.2379     0.0000   416.0000 </r>
      </set>
     </set>
    </array>
   </total>
  </dos>
 </calculation>
 <structure name="finalpos" >
  <crystal>
   <varray name="basis" >
    <v>      29.03673578       0.01168908       0.00000000 </v>
    <v>     -14.50823864      25.20631360       0.00000000 </v>
    <v>       0.00000000       0.00000000      20.00000000 </v>
   </varray>
   <i name="volume">  14641.57312123 </i>
   <varray name="rec_basis" >
    <v>       0.03443115       0.01981787       0.00000000 </v>
    <v>      -0.00001597       0.03966341       0.00000000 </v>
    <v>       0.00000000       0.00000000       0.05000000 </v>
   </varray>
  </crystal>
  <varray name="positions" >
   <v>       0.44349961       0.65297753       0.52459690 </v>
   <v>       0.21196268       0.55755060       0.52566964 </v>
   <v>       0.34747199       0.78864959       0.52295620 </v>
   <v>       0.56066583       0.34894410       0.47860521 </v>
   <v>       0.79058635       0.43901672       0.47822219 </v>
   <v>       0.65130772       0.20935073       0.48027176 </v>
   <v>       0.60072583       0.13553315       0.40257451 </v>
   <v>       0.55966115       0.95636317       0.36665730 </v>
   <v>       0.59656031       0.05360755       0.35962567 </v>
   <v>       0.49941276       0.86989684       0.42166999 </v>
   <v>       0.86468091       0.46138782       0.40081160 </v>
   <v>       0.04411160       0.59963318       0.36485621 </v>
   <v>       0.94685700       0.53898525       0.35738097 </v>
   <v>       0.13076391       0.62671952       0.42111236 </v>
   <v>       0.53778590       0.40024390       0.40055239 </v>
   <v>       0.40014627       0.44260803       0.36475371 </v>
   <v>       0.46035248       0.40530274       0.35740223 </v>
   <v>       0.37370753       0.50257266       0.42065252 </v>
   <v>       0.49519974       0.12103580       0.56336807 </v>
   <v>       0.40417244       0.86948784       0.58733741 </v>
   <v>       0.87945026       0.37299671       0.56455898 </v>
   <v>       0.13055916       0.53415445       0.58965946 </v>
   <v>       0.62847930       0.50471076       0.56199526 </v>
   <v>       0.46736114       0.59540787       0.58821491 </v>
   <v>       0.31188410       0.61193746       0.52564618 </v>
   <v>       0.38891740       0.69841693       0.52422968 </v>
   <v>       0.30223665       0.68892140       0.52453147 </v>
   <v>       0.69153805       0.38700677       0.47930714 </v>
   <v>       0.61282915       0.30178760       0.48031615 </v>
   <v>       0.69827957       0.30834531       0.48037949 </v>
   <v>       0.42679812       0.80727683       0.50698153 </v>
   <v>       0.19315948       0.61789932       0.50820360 </v>
   <v>       0.38301332       0.57400851       0.50741032 </v>
   <v>       0.49078496       0.05093434       0.53333096 </v>
   <v>       0.45158331       0.94235790       0.54351260 </v>
   <v>       0.57147092       0.19056697       0.48659539 </v>
   <v>       0.94949877       0.43847086       0.53410772 </v>
   <v>       0.05777127       0.50811558       0.54485412 </v>
   <v>       0.80974649       0.37836420       0.48625394 </v>
   <v>       0.56287312       0.50956406       0.53215455 </v>
   <v>       0.49315076       0.54846329       0.54343396 </v>
   <v>       0.62164913       0.42856078       0.48504731 </v>
   <v>       0.28270154       0.63605216       0.52489362 </v>
   <v>       0.36482842       0.64523934       0.52453403 </v>
   <v>       0.35548940       0.71798767       0.52370945 </v>
   <v>       0.37735673       0.77591436       0.51907983 </v>
   <v>       0.22464377       0.60002303       0.52102500 </v>
   <v>       0.40094646       0.62326893       0.52023889 </v>
   <v>       0.71933750       0.36139710       0.48000944 </v>
   <v>       0.63840547       0.35507801       0.47987795 </v>
   <v>       0.64489760       0.28067411       0.48075447 </v>
   <v>       0.62166486       0.22252621       0.48200347 </v>
   <v>       0.77756738       0.39634575       0.48081805 </v>
   <v>       0.60344265       0.37842490       0.48050097 </v>
   <v>       0.54906474       0.05662176       0.44197063 </v>
   <v>       0.57070158       0.11199132       0.43997836 </v>
   <v>       0.48797081       0.97037377       0.49559133 </v>
   <v>       0.44703365       0.86169761       0.50253179 </v>
   <v>       0.48597024       0.89050599       0.45509583 </v>
   <v>       0.50688257       0.94557952       0.44991077 </v>
   <v>       0.54621421       0.97655658       0.40080639 </v>
   <v>       0.56646154       0.03003720       0.39690955 </v>
   <v>       0.94372847       0.48960719       0.44107209 </v>
   <v>       0.88832593       0.45562631       0.43887207 </v>
   <v>       0.02995776       0.51582637       0.49596299 </v>
   <v>       0.13866824       0.58369137       0.50353118 </v>
   <v>       0.10998833       0.59315162       0.45507819 </v>
   <v>       0.05487612       0.55889419       0.44956788 </v>
   <v>       0.02391224       0.56644900       0.39952921 </v>
   <v>       0.97039844       0.53303347       0.39537635 </v>
   <v>       0.51051269       0.45195703       0.44031153 </v>
   <v>       0.54415782       0.43007393       0.43818041 </v>
   <v>       0.48511734       0.51271074       0.49477883 </v>
   <v>       0.41726244       0.55372062       0.50259716 </v>
   <v>       0.40750112       0.51544015       0.45436630 </v>
   <v>       0.44169211       0.49445027       0.44878670 </v>
   <v>       0.43359158       0.45559989       0.39910562 </v>
   <v>       0.46675510       0.43513700       0.39501667 </v>
   <v>       0.55253928       0.13614479       0.48460957 </v>
   <v>       0.51087072       0.10274176       0.52922411 </v>
   <v>       0.50927681       0.02724208       0.49115680 </v>
   <v>       0.43207753       0.89061142       0.54663352 </v>
   <v>       0.86421601       0.41393254       0.48425755 </v>
   <v>       0.89768476       0.40647969       0.52981069 </v>
   <v>       0.97311251       0.48005859       0.49121982 </v>
   <v>       0.10956746       0.54041523       0.54826477 </v>
   <v>       0.58629005       0.44777742       0.48300596 </v>
   <v>       0.59455556       0.48931331       0.52784361 </v>
   <v>       0.52076757       0.49139778       0.48991526 </v>
   <v>       0.46084546       0.56801030       0.54697503 </v>
  </varray>
 </structure>
</modeling>
