<?xml version="1.0" encoding="ISO-8859-1"?>
<modeling>
 <generator>
  <i name="program" type="string">vasp </i>
  <i name="version" type="string">5.4.4.18Apr17-6-g9f103f2a35  </i>
  <i name="subversion" type="string">(build Jun 07 2020 16:50:00) complex            parallel </i>
  <i name="platform" type="string">LinuxIFC </i>
  <i name="date" type="string">2023 02 19 </i>
  <i name="time" type="string">14:43:46 </i>
 </generator>
 <incar>
  <i type="string" name="SYSTEM">Simulation for cell shape cell volume r</i>
  <i type="int" name="ISTART">     1</i>
  <i type="string" name="PREC">high</i>
  <i type="string" name="ALGO">48</i>
  <i type="int" name="ICHARG">    11</i>
  <i type="int" name="NELM">   200</i>
  <i type="int" name="IBRION">    -1</i>
  <i name="EDIFF">      0.00001000</i>
  <i name="EDIFFG">     -0.01000000</i>
  <i type="int" name="NSW">     0</i>
  <i type="int" name="ISIF">     2</i>
  <i name="ENCUT">    500.00000000</i>
  <i name="POTIM">      0.30000000</i>
  <i type="string" name="LREAL">A</i>
  <i type="int" name="ISMEAR">     0</i>
  <i name="SIGMA">      0.01000000</i>
  <i type="int" name="NWRITE">     0</i>
  <i type="logical" name="LWAVE"> F  </i>
  <i type="logical" name="LCHARG"> F  </i>
  <v type="int" name="KPOINT_BSE">    -1     0     0     0</v>
  <i type="int" name="NELM">   200</i>
  <i type="string" name="GGA">PE</i>
 </incar>
 <structure name="primitive_cell" >
  <crystal>
   <varray name="basis" >
    <v>      21.95277467       0.02396482       0.00000000 </v>
    <v>     -10.95560606      18.97939457       0.00000000 </v>
    <v>       0.00000000       0.00000000      20.00000000 </v>
   </varray>
   <i name="volume">   8338.25843148 </i>
   <varray name="rec_basis" >
    <v>       0.04552364       0.02627792       0.00000000 </v>
    <v>      -0.00005748       0.05265554       0.00000000 </v>
    <v>       0.00000000       0.00000000       0.05000000 </v>
   </varray>
  </crystal>
  <varray name="positions" >
   <v>       0.28929047      -0.30301337      -0.49892974 </v>
   <v>       0.26280933      -0.37301225      -0.49954662 </v>
   <v>       0.36053755      -0.26596493      -0.49864266 </v>
   <v>       0.39013460      -0.19477591      -0.49819940 </v>
   <v>       0.19174841      -0.41446308      -0.49988107 </v>
   <v>       0.29989816      -0.40730637      -0.49996053 </v>
   <v>       0.40392744      -0.29255461      -0.49881308 </v>
   <v>       0.35658577      -0.17572527       0.49920199 </v>
   <v>       0.36975476      -0.36393142      -0.49946031 </v>
   <v>       0.15415240      -0.34934456      -0.46469231 </v>
   <v>       0.14332992      -0.38740640       0.49489552 </v>
   <v>       0.15313013      -0.35712412       0.44828600 </v>
   <v>       0.17275842      -0.46707160       0.49750668 </v>
   <v>       0.46541226      -0.14632105       0.49584152 </v>
   <v>       0.12920121      -0.41116304      -0.38086951 </v>
   <v>       0.48535870      -0.15639358       0.44903776 </v>
   <v>       0.41120439      -0.39366844      -0.49977048 </v>
   <v>       0.49304225      -0.15693262      -0.46399895 </v>
   <v>       0.12823534      -0.43351183       0.37714607 </v>
   <v>       0.06817482      -0.44729926       0.49776763 </v>
   <v>       0.43344675      -0.13140134       0.37822833 </v>
   <v>       0.45546227      -0.13215059      -0.38013454 </v>
   <v>       0.46374427      -0.36011728       0.49850797 </v>
   <v>       0.48070535      -0.07101386       0.49860279 </v>
   <v>       0.07211080      -0.43533502      -0.37559811 </v>
   <v>       0.07096595      -0.46129539       0.37157491 </v>
   <v>       0.38445369      -0.46910112       0.49479186 </v>
   <v>       0.34644796      -0.49651658      -0.46485841 </v>
   <v>       0.35428754      -0.48944231       0.44815147 </v>
   <v>       0.03377701      -0.46863524      -0.43997289 </v>
   <v>       0.03326664      -0.48097987       0.43816055 </v>
   <v>       0.06093993      -0.39427509      -0.35777660 </v>
   <v>       0.46327172      -0.07405447       0.37251276 </v>
   <v>       0.48849205      -0.07498050      -0.37477394 </v>
   <v>       0.48183831      -0.03609479       0.43899778 </v>
   <v>       0.49393321      -0.03645022      -0.43918642 </v>
   <v>       0.05737120      -0.42735661       0.34189098 </v>
   <v>       0.43093581      -0.05915882       0.34228701 </v>
   <v>       0.05592674      -0.47464779      -0.33551066 </v>
   <v>       0.40833833      -0.45904858      -0.38116877 </v>
   <v>       0.05640445       0.49157455       0.34126281 </v>
   <v>       0.43024062      -0.43826286       0.37691532 </v>
   <v>       0.46528644      -0.05871393      -0.33483192 </v>
   <v>      -0.48952245      -0.06092622       0.34263912 </v>
   <v>      -0.45953629      -0.06402127      -0.35668107 </v>
   <v>       0.44453402      -0.48419139       0.49762012 </v>
   <v>      -0.03731488       0.47773353      -0.43752802 </v>
   <v>      -0.03785813       0.46549641       0.44058819 </v>
   <v>       0.49981098       0.03527575       0.44132358 </v>
   <v>      -0.48816324       0.03490651      -0.43683036 </v>
   <v>       0.43315467      -0.49146672      -0.37567693 </v>
   <v>       0.45839320      -0.46749867       0.37140846 </v>
   <v>      -0.07219097       0.44403962      -0.49712642 </v>
   <v>      -0.48671809       0.06992339      -0.49647665 </v>
   <v>       0.46616004      -0.49693763      -0.44009861 </v>
   <v>       0.47820765      -0.48540031       0.43800724 </v>
   <v>       0.39281906       0.45640593      -0.35717367 </v>
   <v>       0.47271720      -0.46748093      -0.33596044 </v>
   <v>       0.42487497       0.48495881       0.34165633 </v>
   <v>      -0.06146478      -0.49446270      -0.34129409 </v>
   <v>      -0.49461671      -0.43473534       0.34115244 </v>
   <v>      -0.07496220       0.45821848      -0.37092693 </v>
   <v>      -0.05978075       0.47182946       0.33609355 </v>
   <v>       0.45301273       0.06320241       0.35937082 </v>
   <v>       0.48259393       0.05844036      -0.34021491 </v>
   <v>      -0.49499055       0.07372092       0.37691286 </v>
   <v>      -0.07649873       0.43252193       0.37623242 </v>
   <v>      -0.06020637       0.42558857      -0.34056790 </v>
   <v>      -0.47003572       0.07260385      -0.37022477 </v>
   <v>      -0.47253620       0.05698303       0.33668057 </v>
   <v>      -0.43699850       0.05841755      -0.34024200 </v>
   <v>      -0.06633042       0.39078569       0.35844770 </v>
   <v>      -0.13223634       0.42918115      -0.37641679 </v>
   <v>      -0.48008224       0.48568891      -0.43768011 </v>
   <v>      -0.46803286       0.49722292       0.44042796 </v>
   <v>      -0.47062702       0.14549841      -0.49385053 </v>
   <v>      -0.13349396       0.40930024       0.38157400 </v>
   <v>      -0.14743424       0.38433428      -0.49439208 </v>
   <v>      -0.46149807       0.13086464       0.38204190 </v>
   <v>      -0.44115017       0.12999119      -0.37567205 </v>
   <v>      -0.49777434       0.15653839       0.46583832 </v>
   <v>      -0.49045652       0.15598972      -0.44720094 </v>
   <v>      -0.17590427       0.46464825      -0.49700376 </v>
   <v>      -0.15752583       0.35383545      -0.44789049 </v>
   <v>      -0.15838986       0.34638318       0.46505176 </v>
   <v>      -0.44643801       0.48443623      -0.49729886 </v>
   <v>      -0.19536177       0.41195621      -0.49952970 </v>
   <v>      -0.36208155       0.17366647      -0.49695530 </v>
   <v>       0.49290993       0.43565493      -0.34050921 </v>
   <v>      -0.47447749       0.46828202       0.33613851 </v>
   <v>      -0.46018739       0.46782606      -0.37109984 </v>
   <v>      -0.42604458      -0.48457737      -0.34166844 </v>
   <v>      -0.43502743       0.49173462       0.37601418 </v>
   <v>      -0.39424296      -0.45621107       0.35777168 </v>
   <v>      -0.39517343       0.19325706      -0.49964384 </v>
   <v>      -0.43262965       0.43799900      -0.37665572 </v>
   <v>      -0.41072102       0.45883074       0.38144817 </v>
   <v>      -0.38659302       0.46899445      -0.49446298 </v>
   <v>      -0.26648828       0.37109213      -0.49947589 </v>
   <v>      -0.35637478       0.48928232      -0.44784269 </v>
   <v>      -0.34857814       0.49616034       0.46513877 </v>
   <v>      -0.36489601       0.26452224      -0.49965347 </v>
   <v>      -0.46643548       0.36021697      -0.49772653 </v>
   <v>      -0.30295799       0.40602169      -0.49918964 </v>
   <v>      -0.40769968       0.29178526      -0.49960950 </v>
   <v>      -0.29364704       0.30100916      -0.49968296 </v>
   <v>      -0.41382704       0.39347051      -0.49974216 </v>
   <v>      -0.37289930       0.36317468      -0.49952332 </v>
  </varray>
 </structure>
 <varray name="primitive_index" >
  <v type="int" >        1 </v>
  <v type="int" >       68 </v>
  <v type="int" >       67 </v>
  <v type="int" >        6 </v>
  <v type="int" >        4 </v>
  <v type="int" >        2 </v>
  <v type="int" >        3 </v>
  <v type="int" >       15 </v>
  <v type="int" >       69 </v>
  <v type="int" >       66 </v>
  <v type="int" >      108 </v>
  <v type="int" >       65 </v>
  <v type="int" >       13 </v>
  <v type="int" >       96 </v>
  <v type="int" >       38 </v>
  <v type="int" >       49 </v>
  <v type="int" >        5 </v>
  <v type="int" >       50 </v>
  <v type="int" >       62 </v>
  <v type="int" >      103 </v>
  <v type="int" >       46 </v>
  <v type="int" >       22 </v>
  <v type="int" >       14 </v>
  <v type="int" >       91 </v>
  <v type="int" >       89 </v>
  <v type="int" >      107 </v>
  <v type="int" >      102 </v>
  <v type="int" >       58 </v>
  <v type="int" >       57 </v>
  <v type="int" >       87 </v>
  <v type="int" >      104 </v>
  <v type="int" >       39 </v>
  <v type="int" >       95 </v>
  <v type="int" >       77 </v>
  <v type="int" >       92 </v>
  <v type="int" >       75 </v>
  <v type="int" >       64 </v>
  <v type="int" >       47 </v>
  <v type="int" >       40 </v>
  <v type="int" >       30 </v>
  <v type="int" >       63 </v>
  <v type="int" >       54 </v>
  <v type="int" >       24 </v>
  <v type="int" >       48 </v>
  <v type="int" >       23 </v>
  <v type="int" >       97 </v>
  <v type="int" >       86 </v>
  <v type="int" >      105 </v>
  <v type="int" >       93 </v>
  <v type="int" >       74 </v>
  <v type="int" >       83 </v>
  <v type="int" >      101 </v>
  <v type="int" >       85 </v>
  <v type="int" >       73 </v>
  <v type="int" >       81 </v>
  <v type="int" >       98 </v>
  <v type="int" >       31 </v>
  <v type="int" >       32 </v>
  <v type="int" >       56 </v>
  <v type="int" >       36 </v>
  <v type="int" >       55 </v>
  <v type="int" >       88 </v>
  <v type="int" >       61 </v>
  <v type="int" >       43 </v>
  <v type="int" >       19 </v>
  <v type="int" >       94 </v>
  <v type="int" >      106 </v>
  <v type="int" >       35 </v>
  <v type="int" >       76 </v>
  <v type="int" >       45 </v>
  <v type="int" >       20 </v>
  <v type="int" >       59 </v>
  <v type="int" >       37 </v>
  <v type="int" >       80 </v>
  <v type="int" >       99 </v>
  <v type="int" >       78 </v>
  <v type="int" >       60 </v>
  <v type="int" >       90 </v>
  <v type="int" >       44 </v>
  <v type="int" >       21 </v>
  <v type="int" >       25 </v>
  <v type="int" >       26 </v>
  <v type="int" >       16 </v>
  <v type="int" >       42 </v>
  <v type="int" >       41 </v>
  <v type="int" >       79 </v>
  <v type="int" >       10 </v>
  <v type="int" >       18 </v>
  <v type="int" >       28 </v>
  <v type="int" >       53 </v>
  <v type="int" >       82 </v>
  <v type="int" >       27 </v>
  <v type="int" >      100 </v>
  <v type="int" >       51 </v>
  <v type="int" >       12 </v>
  <v type="int" >       29 </v>
  <v type="int" >       52 </v>
  <v type="int" >       84 </v>
  <v type="int" >       71 </v>
  <v type="int" >       34 </v>
  <v type="int" >       33 </v>
  <v type="int" >       70 </v>
  <v type="int" >       17 </v>
  <v type="int" >        8 </v>
  <v type="int" >        9 </v>
  <v type="int" >        7 </v>
  <v type="int" >       11 </v>
  <v type="int" >       72 </v>
 </varray>
 <kpoints>
  <generation param="listgenerated">
   <i name="divisions" type="int">      20 </i>
   <v>       0.00000000       0.00000000       0.00000000 </v>
   <v>       0.50000000       0.00000000       0.00000000 </v>
   <v>       0.33333333       0.33333333       0.00000000 </v>
   <v>       0.00000000       0.00000000       0.00000000 </v>
  </generation>
  <varray name="kpointlist" >
   <v>       0.00000000       0.00000000       0.00000000 </v>
   <v>       0.02631579       0.00000000       0.00000000 </v>
   <v>       0.05263158       0.00000000       0.00000000 </v>
   <v>       0.07894737       0.00000000       0.00000000 </v>
   <v>       0.10526316       0.00000000       0.00000000 </v>
   <v>       0.13157895       0.00000000       0.00000000 </v>
   <v>       0.15789474       0.00000000       0.00000000 </v>
   <v>       0.18421053       0.00000000       0.00000000 </v>
   <v>       0.21052632       0.00000000       0.00000000 </v>
   <v>       0.23684211       0.00000000       0.00000000 </v>
   <v>       0.26315789       0.00000000       0.00000000 </v>
   <v>       0.28947368       0.00000000       0.00000000 </v>
   <v>       0.31578947       0.00000000       0.00000000 </v>
   <v>       0.34210526       0.00000000       0.00000000 </v>
   <v>       0.36842105       0.00000000       0.00000000 </v>
   <v>       0.39473684       0.00000000       0.00000000 </v>
   <v>       0.42105263       0.00000000       0.00000000 </v>
   <v>       0.44736842       0.00000000       0.00000000 </v>
   <v>       0.47368421       0.00000000       0.00000000 </v>
   <v>       0.50000000       0.00000000       0.00000000 </v>
   <v>       0.50000000       0.00000000       0.00000000 </v>
   <v>       0.49122807       0.01754386       0.00000000 </v>
   <v>       0.48245614       0.03508772       0.00000000 </v>
   <v>       0.47368421       0.05263158       0.00000000 </v>
   <v>       0.46491228       0.07017544       0.00000000 </v>
   <v>       0.45614035       0.08771930       0.00000000 </v>
   <v>       0.44736842       0.10526316       0.00000000 </v>
   <v>       0.43859649       0.12280702       0.00000000 </v>
   <v>       0.42982456       0.14035088       0.00000000 </v>
   <v>       0.42105263       0.15789474       0.00000000 </v>
   <v>       0.41228070       0.17543860       0.00000000 </v>
   <v>       0.40350877       0.19298246       0.00000000 </v>
   <v>       0.39473684       0.21052632       0.00000000 </v>
   <v>       0.38596491       0.22807018       0.00000000 </v>
   <v>       0.37719298       0.24561404       0.00000000 </v>
   <v>       0.36842105       0.26315789       0.00000000 </v>
   <v>       0.35964912       0.28070175       0.00000000 </v>
   <v>       0.35087719       0.29824561       0.00000000 </v>
   <v>       0.34210526       0.31578947       0.00000000 </v>
   <v>       0.33333333       0.33333333       0.00000000 </v>
   <v>       0.33333333       0.33333333       0.00000000 </v>
   <v>       0.31578947       0.31578947       0.00000000 </v>
   <v>       0.29824561       0.29824561       0.00000000 </v>
   <v>       0.28070175       0.28070175       0.00000000 </v>
   <v>       0.26315789       0.26315789       0.00000000 </v>
   <v>       0.24561404       0.24561404       0.00000000 </v>
   <v>       0.22807018       0.22807018       0.00000000 </v>
   <v>       0.21052632       0.21052632       0.00000000 </v>
   <v>       0.19298246       0.19298246       0.00000000 </v>
   <v>       0.17543860       0.17543860       0.00000000 </v>
   <v>       0.15789474       0.15789474       0.00000000 </v>
   <v>       0.14035088       0.14035088       0.00000000 </v>
   <v>       0.12280702       0.12280702       0.00000000 </v>
   <v>       0.10526316       0.10526316       0.00000000 </v>
   <v>       0.08771930       0.08771930       0.00000000 </v>
   <v>       0.07017544       0.07017544       0.00000000 </v>
   <v>       0.05263158       0.05263158       0.00000000 </v>
   <v>       0.03508772       0.03508772       0.00000000 </v>
   <v>       0.01754386       0.01754386       0.00000000 </v>
   <v>       0.00000000       0.00000000       0.00000000 </v>
  </varray>
  <varray name="weights" >
   <v>       0.01666667 </v>
   <v>       0.01666667 </v>
   <v>       0.01666667 </v>
   <v>       0.01666667 </v>
   <v>       0.01666667 </v>
   <v>       0.01666667 </v>
   <v>       0.01666667 </v>
   <v>       0.01666667 </v>
   <v>       0.01666667 </v>
   <v>       0.01666667 </v>
   <v>       0.01666667 </v>
   <v>       0.01666667 </v>
   <v>       0.01666667 </v>
   <v>       0.01666667 </v>
   <v>       0.01666667 </v>
   <v>       0.01666667 </v>
   <v>       0.01666667 </v>
   <v>       0.01666667 </v>
   <v>       0.01666667 </v>
   <v>       0.01666667 </v>
   <v>       0.01666667 </v>
   <v>       0.01666667 </v>
   <v>       0.01666667 </v>
   <v>       0.01666667 </v>
   <v>       0.01666667 </v>
   <v>       0.01666667 </v>
   <v>       0.01666667 </v>
   <v>       0.01666667 </v>
   <v>       0.01666667 </v>
   <v>       0.01666667 </v>
   <v>       0.01666667 </v>
   <v>       0.01666667 </v>
   <v>       0.01666667 </v>
   <v>       0.01666667 </v>
   <v>       0.01666667 </v>
   <v>       0.01666667 </v>
   <v>       0.01666667 </v>
   <v>       0.01666667 </v>
   <v>       0.01666667 </v>
   <v>       0.01666667 </v>
   <v>       0.01666667 </v>
   <v>       0.01666667 </v>
   <v>       0.01666667 </v>
   <v>       0.01666667 </v>
   <v>       0.01666667 </v>
   <v>       0.01666667 </v>
   <v>       0.01666667 </v>
   <v>       0.01666667 </v>
   <v>       0.01666667 </v>
   <v>       0.01666667 </v>
   <v>       0.01666667 </v>
   <v>       0.01666667 </v>
   <v>       0.01666667 </v>
   <v>       0.01666667 </v>
   <v>       0.01666667 </v>
   <v>       0.01666667 </v>
   <v>       0.01666667 </v>
   <v>       0.01666667 </v>
   <v>       0.01666667 </v>
   <v>       0.01666667 </v>
  </varray>
 </kpoints>
 <parameters>
  <separator name="general" >
   <i type="string" name="SYSTEM">Simulation for cell shape cell volume r</i>
   <i type="logical" name="LCOMPAT"> F  </i>
  </separator>
  <separator name="electronic" >
   <i type="string" name="PREC">high</i>
   <i name="ENMAX">    500.00000000</i>
   <i name="ENAUG">    644.87300000</i>
   <i name="EDIFF">      0.00001000</i>
   <i type="int" name="IALGO">    38</i>
   <i type="int" name="IWAVPR">    10</i>
   <i type="int" name="NBANDS">   208</i>
   <i name="NELECT">    282.00000000</i>
   <i type="int" name="TURBO">     0</i>
   <i type="int" name="IRESTART">     0</i>
   <i type="int" name="NREBOOT">     0</i>
   <i type="int" name="NMIN">     0</i>
   <i name="EREF">      0.00000000</i>
   <separator name="electronic smearing" >
    <i type="int" name="ISMEAR">     0</i>
    <i name="SIGMA">      0.01000000</i>
    <i name="KSPACING">      0.50000000</i>
    <i type="logical" name="KGAMMA"> T  </i>
   </separator>
   <separator name="electronic projectors" >
    <i type="logical" name="LREAL"> T  </i>
    <v name="ROPT">     -0.00040000     -0.00040000     -0.00040000</v>
    <i type="int" name="LMAXPAW">  -100</i>
    <i type="int" name="LMAXMIX">     2</i>
    <i type="logical" name="NLSPLINE"> F  </i>
   </separator>
   <separator name="electronic startup" >
    <i type="int" name="ISTART">     1</i>
    <i type="int" name="ICHARG">    11</i>
    <i type="int" name="INIWAV">     1</i>
   </separator>
   <separator name="electronic spin" >
    <i type="int" name="ISPIN">     1</i>
    <i type="logical" name="LNONCOLLINEAR"> F  </i>
    <v name="MAGMOM">      1.00000000      1.00000000      1.00000000      1.00000000      1.00000000      1.00000000      1.00000000      1.00000000      1.00000000      1.00000000      1.00000000      1.00000000      1.00000000      1.00000000      1.00000000      1.00000000      1.00000000      1.00000000      1.00000000      1.00000000
      1.00000000      1.00000000      1.00000000      1.00000000      1.00000000      1.00000000      1.00000000      1.00000000      1.00000000      1.00000000      1.00000000      1.00000000      1.00000000      1.00000000      1.00000000      1.00000000      1.00000000      1.00000000      1.00000000      1.00000000
      1.00000000      1.00000000      1.00000000      1.00000000      1.00000000      1.00000000      1.00000000      1.00000000      1.00000000      1.00000000      1.00000000      1.00000000      1.00000000      1.00000000      1.00000000      1.00000000      1.00000000      1.00000000      1.00000000      1.00000000
      1.00000000      1.00000000      1.00000000      1.00000000      1.00000000      1.00000000      1.00000000      1.00000000      1.00000000      1.00000000      1.00000000      1.00000000      1.00000000      1.00000000      1.00000000      1.00000000      1.00000000      1.00000000      1.00000000      1.00000000
      1.00000000      1.00000000      1.00000000      1.00000000      1.00000000      1.00000000      1.00000000      1.00000000      1.00000000      1.00000000      1.00000000      1.00000000      1.00000000      1.00000000      1.00000000      1.00000000      1.00000000      1.00000000      1.00000000      1.00000000
      1.00000000      1.00000000      1.00000000      1.00000000      1.00000000      1.00000000      1.00000000      1.00000000</v>
    <i name="NUPDOWN">     -1.00000000</i>
    <i type="logical" name="LSORBIT"> F  </i>
    <v name="SAXIS">      0.00000000      0.00000000      1.00000000</v>
    <i type="logical" name="LSPIRAL"> F  </i>
    <v name="QSPIRAL">      0.00000000      0.00000000      0.00000000</v>
    <i type="logical" name="LZEROZ"> F  </i>
   </separator>
   <separator name="electronic exchange-correlation" >
    <i type="logical" name="LASPH"> F  </i>
    <i type="logical" name="LMETAGGA"> F  </i>
   </separator>
   <separator name="electronic convergence" >
    <i type="int" name="NELM">   200</i>
    <i type="int" name="NELMDL">     0</i>
    <i type="int" name="NELMIN">     2</i>
    <i name="ENINI">    500.00000000</i>
    <separator name="electronic convergence detail" >
     <i type="logical" name="LDIAG"> T  </i>
     <i type="logical" name="LSUBROT"> F  </i>
     <i name="WEIMIN">      0.00000000</i>
     <i name="EBREAK">      0.00000001</i>
     <i name="DEPER">      0.30000000</i>
     <i type="int" name="NRMM">     4</i>
     <i name="TIME">      0.40000000</i>
    </separator>
   </separator>
   <separator name="electronic mixer" >
    <i name="AMIX">      0.40000000</i>
    <i name="BMIX">      1.00000000</i>
    <i name="AMIN">      0.10000000</i>
    <i name="AMIX_MAG">      1.60000000</i>
    <i name="BMIX_MAG">      1.00000000</i>
    <separator name="electronic mixer details" >
     <i type="int" name="IMIX">     4</i>
     <i type="logical" name="MIXFIRST"> F  </i>
     <i type="int" name="MAXMIX">   -45</i>
     <i name="WC">    100.00000000</i>
     <i type="int" name="INIMIX">     1</i>
     <i type="int" name="MIXPRE">     1</i>
     <i type="int" name="MREMOVE">     5</i>
    </separator>
   </separator>
   <separator name="electronic dipolcorrection" >
    <i type="logical" name="LDIPOL"> F  </i>
    <i type="logical" name="LMONO"> F  </i>
    <i type="int" name="IDIPOL">     0</i>
    <i name="EPSILON">      1.00000000</i>
    <v name="DIPOL">   -100.00000000   -100.00000000   -100.00000000</v>
    <i name="EFIELD">      0.00000000</i>
   </separator>
  </separator>
  <separator name="grids" >
   <i type="int" name="NGX">   160</i>
   <i type="int" name="NGY">   160</i>
   <i type="int" name="NGZ">   150</i>
   <i type="int" name="NGXF">   250</i>
   <i type="int" name="NGYF">   250</i>
   <i type="int" name="NGZF">   224</i>
   <i type="logical" name="ADDGRID"> F  </i>
  </separator>
  <separator name="ionic" >
   <i type="int" name="NSW">     0</i>
   <i type="int" name="IBRION">    -1</i>
   <i type="int" name="MDALGO">     0</i>
   <i type="int" name="ISIF">     2</i>
   <i name="PSTRESS">      0.00000000</i>
   <i name="EDIFFG">     -0.01000000</i>
   <i type="int" name="NFREE">     0</i>
   <i name="POTIM">      0.30000000</i>
   <i name="SMASS">     -3.00000000</i>
   <i name="SCALEE">      1.00000000</i>
  </separator>
  <separator name="ionic md" >
   <i name="TEBEG">      0.00010000</i>
   <i name="TEEND">      0.00010000</i>
   <i type="int" name="NBLOCK">     1</i>
   <i type="int" name="KBLOCK">     1</i>
   <i type="int" name="NPACO">   256</i>
   <i name="APACO">     16.00000000</i>
  </separator>
  <separator name="symmetry" >
   <i type="int" name="ISYM">     2</i>
   <i name="SYMPREC">      0.00001000</i>
  </separator>
  <separator name="dos" >
   <i type="int" name="LORBIT">     0</i>
   <v name="RWIGS">     -1.00000000     -1.00000000     -1.00000000</v>
   <i type="int" name="NEDOS">   301</i>
   <i name="EMIN">     10.00000000</i>
   <i name="EMAX">    -10.00000000</i>
   <i name="EFERMI">      0.00000000</i>
  </separator>
  <separator name="writing" >
   <i type="int" name="NWRITE">     0</i>
   <i type="logical" name="LWAVE"> F  </i>
   <i type="logical" name="LDOWNSAMPLE"> F  </i>
   <i type="logical" name="LCHARG"> F  </i>
   <i type="logical" name="LPARD"> F  </i>
   <i type="logical" name="LVTOT"> F  </i>
   <i type="logical" name="LVHAR"> F  </i>
   <i type="logical" name="LELF"> F  </i>
   <i type="logical" name="LOPTICS"> F  </i>
   <v name="STM">      0.00000000      0.00000000      0.00000000      0.00000000      0.00000000      0.00000000      0.00000000</v>
  </separator>
  <separator name="performance" >
   <i type="int" name="NPAR">    16</i>
   <i type="int" name="NSIM">     4</i>
   <i type="int" name="NBLK">    -1</i>
   <i type="logical" name="LPLANE"> T  </i>
   <i type="logical" name="LSCALAPACK"> T  </i>
   <i type="logical" name="LSCAAWARE"> F  </i>
   <i type="logical" name="LSCALU"> F  </i>
   <i type="logical" name="LASYNC"> F  </i>
   <i type="logical" name="LORBITALREAL"> F  </i>
  </separator>
  <separator name="miscellaneous" >
   <i type="int" name="IDIOT">     3</i>
   <i type="int" name="ISPECIAL">     0</i>
   <i type="logical" name="LMUSIC"> F  </i>
   <v name="POMASS">     14.00100000      1.00000000     12.01100000</v>
   <v name="DARWINR">      0.00000000      0.00000000      0.00000000</v>
   <v name="DARWINV">      1.00000000      1.00000000      1.00000000</v>
   <i type="logical" name="LCORR"> T  </i>
  </separator>
  <i type="logical" name="GGA_COMPAT"> T  </i>
  <i type="logical" name="LBERRY"> F  </i>
  <i type="int" name="ICORELEVEL">     0</i>
  <i type="logical" name="LDAU"> F  </i>
  <i type="int" name="I_CONSTRAINED_M">     0</i>
  <separator name="electronic exchange-correlation" >
   <i type="string" name="GGA">PE</i>
   <i type="int" name="VOSKOWN">     0</i>
   <i type="logical" name="LHFCALC"> F  </i>
   <i type="string" name="PRECFOCK"></i>
   <i type="logical" name="LSYMGRAD"> F  </i>
   <i type="logical" name="LHFONE"> F  </i>
   <i type="logical" name="LRHFCALC"> F  </i>
   <i type="logical" name="LTHOMAS"> F  </i>
   <i type="logical" name="LMODELHF"> F  </i>
   <i name="ENCUT4O">     -1.00000000</i>
   <i type="int" name="EXXOEP">     0</i>
   <i type="int" name="FOURORBIT">     0</i>
   <i name="AEXX">      0.00000000</i>
   <i name="HFALPHA">      0.00000000</i>
   <i name="MCALPHA">      0.00000000</i>
   <i name="ALDAX">      1.00000000</i>
   <i name="AGGAX">      1.00000000</i>
   <i name="ALDAC">      1.00000000</i>
   <i name="AGGAC">      1.00000000</i>
   <i type="int" name="NKREDX">     1</i>
   <i type="int" name="NKREDY">     1</i>
   <i type="int" name="NKREDZ">     1</i>
   <i type="logical" name="SHIFTRED"> F  </i>
   <i type="logical" name="ODDONLY"> F  </i>
   <i type="logical" name="EVENONLY"> F  </i>
   <i type="int" name="LMAXFOCK">     0</i>
   <i type="int" name="NMAXFOCKAE">     0</i>
   <i type="logical" name="LFOCKAEDFT"> F  </i>
   <i name="HFSCREEN">      0.00000000</i>
   <i name="HFSCREENC">      0.00000000</i>
   <i type="int" name="NBANDSGWLOW">     0</i>
  </separator>
  <separator name="vdW DFT" >
   <i type="logical" name="LUSE_VDW"> F  </i>
   <i name="Zab_VDW">     -0.84910000</i>
   <i name="PARAM1">      0.12340000</i>
   <i name="PARAM2">      1.00000000</i>
   <i name="PARAM3">      0.00000000</i>
  </separator>
  <separator name="model GW" >
   <i type="int" name="MODEL_GW">     0</i>
   <i name="MODEL_EPS0">     46.32365795</i>
   <i name="MODEL_ALPHA">      1.00000000</i>
  </separator>
  <separator name="linear response parameters" >
   <i type="logical" name="LEPSILON"> F  </i>
   <i type="logical" name="LRPA"> F  </i>
   <i type="logical" name="LNABLA"> F  </i>
   <i type="logical" name="LVEL"> F  </i>
   <i type="int" name="KINTER">     0</i>
   <i name="CSHIFT">      0.10000000</i>
   <i name="OMEGAMAX">     -1.00000000</i>
   <i name="DEG_THRESHOLD">      0.00200000</i>
   <i name="RTIME">     -0.10000000</i>
   <i name="WPLASMAI">      0.00000000</i>
   <v name="DFIELD">      0.00000000      0.00000000      0.00000000</v>
   <v name="WPLASMA">      0.00000000      0.00000000      0.00000000      0.00000000      0.00000000      0.00000000      0.00000000      0.00000000      0.00000000</v>
  </separator>
  <separator name="orbital magnetization" >
   <i type="logical" name="NUCIND"> F  </i>
   <v name="MAGPOS">      0.00000000      0.00000000      0.00000000</v>
   <i type="logical" name="LNICSALL"> T  </i>
   <i type="logical" name="ORBITALMAG"> F  </i>
   <i type="logical" name="LMAGBLOCH"> F  </i>
   <i type="logical" name="LCHIMAG"> F  </i>
   <i type="logical" name="LGAUGE"> T  </i>
   <i type="int" name="MAGATOM">     0</i>
   <v name="MAGDIPOL">      0.00000000      0.00000000      0.00000000</v>
   <v name="AVECCONST">      0.00000000      0.00000000      0.00000000</v>
  </separator>
  <separator name="response functions" >
   <i type="logical" name="LADDER"> F  </i>
   <i type="logical" name="LRPAFORCE"> F  </i>
   <i type="logical" name="LFXC"> F  </i>
   <i type="logical" name="LHARTREE"> T  </i>
   <i type="int" name="IBSE">     0</i>
   <v type="int" name="KPOINT">    -1     0     0     0</v>
   <i type="logical" name="LTCTE"> F  </i>
   <i type="logical" name="LTETE"> F  </i>
   <i type="logical" name="LTRIPLET"> F  </i>
   <i type="logical" name="LFXCEPS"> F  </i>
   <i type="logical" name="LFXHEG"> F  </i>
   <i type="int" name="NATURALO">     2</i>
   <i type="logical" name="L2ORDER"> F  </i>
   <i type="logical" name="LMP2LT"> F  </i>
   <i type="logical" name="LUSEW"> F  </i>
   <i name="ENCUTGW">     -2.00000000</i>
   <i name="ENCUTGWSOFT">     -2.00000000</i>
   <i name="ENCUTLF">     -1.00000000</i>
   <i type="int" name="LMAXMP2">    -1</i>
   <i name="SCISSOR">      0.00000000</i>
   <i type="int" name="NOMEGA">     0</i>
   <i type="int" name="NOMEGAR">     0</i>
   <i type="int" name="NBANDSGW">    -1</i>
   <i type="int" name="NBANDSO">    -1</i>
   <i type="int" name="NBANDSV">    -1</i>
   <i type="int" name="NELM">   200</i>
   <i type="int" name="NELMHF">     1</i>
   <i type="int" name="DIM">     3</i>
   <i type="int" name="ANTIRES">     0</i>
   <i name="OMEGAMAX">    -30.00000000</i>
   <i name="OMEGAMIN">    -30.00000000</i>
   <i name="OMEGATL">   -200.00000000</i>
   <i type="int" name="OMEGAGRID">   140</i>
   <i name="CSHIFT">     -0.10000000</i>
   <i type="logical" name="SELFENERGY"> F  </i>
   <i type="logical" name="LSPECTRAL"> F  </i>
   <i type="logical" name="LSPECTRALGW"> F  </i>
   <i type="logical" name="LSINGLES"> F  </i>
   <i type="logical" name="LFERMIGW"> F  </i>
   <i type="logical" name="ODDONLYGW"> F  </i>
   <i type="logical" name="EVENONLYGW"> F  </i>
   <i type="int" name="NKREDLFX">     1</i>
   <i type="int" name="NKREDLFY">     1</i>
   <i type="int" name="NKREDLFZ">     1</i>
   <i type="int" name="MAXMEM">  2800</i>
   <i type="int" name="TELESCOPE">     0</i>
   <i type="int" name="TAUPAR">     1</i>
   <i type="int" name="OMEGAPAR">    -1</i>
   <i name="LAMBDA">      1.00000000</i>
  </separator>
  <separator name="External order field" >
   <i name="OFIELD_KAPPA">      0.00000000</i>
   <v name="OFIELD_K">      0.00000000      0.00000000      0.00000000</v>
   <i name="OFIELD_Q6_NEAR">      0.00000000</i>
   <i name="OFIELD_Q6_FAR">      0.00000000</i>
   <i name="OFIELD_A">      0.00000000</i>
  </separator>
  <separator name="solvation model" >
   <i type="logical" name="LSOL"> F  </i>
  </separator>
 </parameters>
 <atominfo>
  <atoms>     108 </atoms>
  <types>       3 </types>
  <array name="atoms" >
   <dimension dim="1">ion</dimension>
   <field type="string">element</field>
   <field type="int">atomtype</field>
   <set>
    <rc><c>N </c><c>   1</c></rc>
    <rc><c>N </c><c>   1</c></rc>
    <rc><c>N </c><c>   1</c></rc>
    <rc><c>N </c><c>   1</c></rc>
    <rc><c>N </c><c>   1</c></rc>
    <rc><c>N </c><c>   1</c></rc>
    <rc><c>N </c><c>   1</c></rc>
    <rc><c>N </c><c>   1</c></rc>
    <rc><c>N </c><c>   1</c></rc>
    <rc><c>N </c><c>   1</c></rc>
    <rc><c>N </c><c>   1</c></rc>
    <rc><c>N </c><c>   1</c></rc>
    <rc><c>H </c><c>   2</c></rc>
    <rc><c>H </c><c>   2</c></rc>
    <rc><c>H </c><c>   2</c></rc>
    <rc><c>H </c><c>   2</c></rc>
    <rc><c>H </c><c>   2</c></rc>
    <rc><c>H </c><c>   2</c></rc>
    <rc><c>H </c><c>   2</c></rc>
    <rc><c>H </c><c>   2</c></rc>
    <rc><c>H </c><c>   2</c></rc>
    <rc><c>H </c><c>   2</c></rc>
    <rc><c>H </c><c>   2</c></rc>
    <rc><c>H </c><c>   2</c></rc>
    <rc><c>H </c><c>   2</c></rc>
    <rc><c>H </c><c>   2</c></rc>
    <rc><c>H </c><c>   2</c></rc>
    <rc><c>H </c><c>   2</c></rc>
    <rc><c>H </c><c>   2</c></rc>
    <rc><c>H </c><c>   2</c></rc>
    <rc><c>H </c><c>   2</c></rc>
    <rc><c>H </c><c>   2</c></rc>
    <rc><c>H </c><c>   2</c></rc>
    <rc><c>H </c><c>   2</c></rc>
    <rc><c>H </c><c>   2</c></rc>
    <rc><c>H </c><c>   2</c></rc>
    <rc><c>H </c><c>   2</c></rc>
    <rc><c>H </c><c>   2</c></rc>
    <rc><c>H </c><c>   2</c></rc>
    <rc><c>H </c><c>   2</c></rc>
    <rc><c>H </c><c>   2</c></rc>
    <rc><c>H </c><c>   2</c></rc>
    <rc><c>H </c><c>   2</c></rc>
    <rc><c>H </c><c>   2</c></rc>
    <rc><c>H </c><c>   2</c></rc>
    <rc><c>H </c><c>   2</c></rc>
    <rc><c>H </c><c>   2</c></rc>
    <rc><c>H </c><c>   2</c></rc>
    <rc><c>H </c><c>   2</c></rc>
    <rc><c>H </c><c>   2</c></rc>
    <rc><c>H </c><c>   2</c></rc>
    <rc><c>H </c><c>   2</c></rc>
    <rc><c>H </c><c>   2</c></rc>
    <rc><c>H </c><c>   2</c></rc>
    <rc><c>H </c><c>   2</c></rc>
    <rc><c>H </c><c>   2</c></rc>
    <rc><c>H </c><c>   2</c></rc>
    <rc><c>H </c><c>   2</c></rc>
    <rc><c>H </c><c>   2</c></rc>
    <rc><c>H </c><c>   2</c></rc>
    <rc><c>H </c><c>   2</c></rc>
    <rc><c>H </c><c>   2</c></rc>
    <rc><c>H </c><c>   2</c></rc>
    <rc><c>H </c><c>   2</c></rc>
    <rc><c>H </c><c>   2</c></rc>
    <rc><c>H </c><c>   2</c></rc>
    <rc><c>C </c><c>   3</c></rc>
    <rc><c>C </c><c>   3</c></rc>
    <rc><c>C </c><c>   3</c></rc>
    <rc><c>C </c><c>   3</c></rc>
    <rc><c>C </c><c>   3</c></rc>
    <rc><c>C </c><c>   3</c></rc>
    <rc><c>C </c><c>   3</c></rc>
    <rc><c>C </c><c>   3</c></rc>
    <rc><c>C </c><c>   3</c></rc>
    <rc><c>C </c><c>   3</c></rc>
    <rc><c>C </c><c>   3</c></rc>
    <rc><c>C </c><c>   3</c></rc>
    <rc><c>C </c><c>   3</c></rc>
    <rc><c>C </c><c>   3</c></rc>
    <rc><c>C </c><c>   3</c></rc>
    <rc><c>C </c><c>   3</c></rc>
    <rc><c>C </c><c>   3</c></rc>
    <rc><c>C </c><c>   3</c></rc>
    <rc><c>C </c><c>   3</c></rc>
    <rc><c>C </c><c>   3</c></rc>
    <rc><c>C </c><c>   3</c></rc>
    <rc><c>C </c><c>   3</c></rc>
    <rc><c>C </c><c>   3</c></rc>
    <rc><c>C </c><c>   3</c></rc>
    <rc><c>C </c><c>   3</c></rc>
    <rc><c>C </c><c>   3</c></rc>
    <rc><c>C </c><c>   3</c></rc>
    <rc><c>C </c><c>   3</c></rc>
    <rc><c>C </c><c>   3</c></rc>
    <rc><c>C </c><c>   3</c></rc>
    <rc><c>C </c><c>   3</c></rc>
    <rc><c>C </c><c>   3</c></rc>
    <rc><c>C </c><c>   3</c></rc>
    <rc><c>C </c><c>   3</c></rc>
    <rc><c>C </c><c>   3</c></rc>
    <rc><c>C </c><c>   3</c></rc>
    <rc><c>C </c><c>   3</c></rc>
    <rc><c>C </c><c>   3</c></rc>
    <rc><c>C </c><c>   3</c></rc>
    <rc><c>C </c><c>   3</c></rc>
    <rc><c>C </c><c>   3</c></rc>
    <rc><c>C </c><c>   3</c></rc>
   </set>
  </array>
  <array name="atomtypes" >
   <dimension dim="1">type</dimension>
   <field type="int">atomspertype</field>
   <field type="string">element</field>
   <field>mass</field>
   <field>valence</field>
   <field type="string">pseudopotential</field>
   <set>
    <rc><c>  12</c><c>N </c><c>     14.00100000</c><c>      5.00000000</c><c>  PAW_PBE N 08Apr2002                   </c></rc>
    <rc><c>  54</c><c>H </c><c>      1.00000000</c><c>      1.00000000</c><c>  PAW_PBE H 15Jun2001                   </c></rc>
    <rc><c>  42</c><c>C </c><c>     12.01100000</c><c>      4.00000000</c><c>  PAW_PBE C 08Apr2002                   </c></rc>
   </set>
  </array>
 </atominfo>
 <structure name="initialpos" >
  <crystal>
   <varray name="basis" >
    <v>      21.95277467       0.02396482       0.00000000 </v>
    <v>     -10.95560606      18.97939457       0.00000000 </v>
    <v>       0.00000000       0.00000000      20.00000000 </v>
   </varray>
   <i name="volume">   8338.25843148 </i>
   <varray name="rec_basis" >
    <v>       0.04552364       0.02627792       0.00000000 </v>
    <v>      -0.00005748       0.05265554       0.00000000 </v>
    <v>       0.00000000       0.00000000       0.05000000 </v>
   </varray>
  </crystal>
  <varray name="positions" >
   <v>       0.28929047       0.69698663       0.50107026 </v>
   <v>       0.29989816       0.59269363       0.50003947 </v>
   <v>       0.40392744       0.70744539       0.50118692 </v>
   <v>       0.19174841       0.58553692       0.50011893 </v>
   <v>       0.41120439       0.60633156       0.50022952 </v>
   <v>       0.39013460       0.80522409       0.50180060 </v>
   <v>       0.70635296       0.30100916       0.50031704 </v>
   <v>       0.69704201       0.40602169       0.50081036 </v>
   <v>       0.59230032       0.29178526       0.50039050 </v>
   <v>       0.80463823       0.41195621       0.50047030 </v>
   <v>       0.58617296       0.39347051       0.50025784 </v>
   <v>       0.60482657       0.19325706       0.50035616 </v>
   <v>       0.17275842       0.53292840       0.49750668 </v>
   <v>       0.46374427       0.63988272       0.49850797 </v>
   <v>       0.35658577       0.82427473       0.49920199 </v>
   <v>       0.82409573       0.46464825       0.50299624 </v>
   <v>       0.53356452       0.36021697       0.50227347 </v>
   <v>       0.63791845       0.17366647       0.50304470 </v>
   <v>       0.48259393       0.05844036       0.65978509 </v>
   <v>       0.56300150       0.05841755       0.65975800 </v>
   <v>       0.55884983       0.12999119       0.62432795 </v>
   <v>       0.45546227       0.86784941       0.61986546 </v>
   <v>       0.54046371       0.93597873       0.64331893 </v>
   <v>       0.46528644       0.94128607       0.66516808 </v>
   <v>       0.50222566       0.15653839       0.46583832 </v>
   <v>       0.50954348       0.15598972       0.55279906 </v>
   <v>       0.57395542       0.51542263       0.65833156 </v>
   <v>       0.49290993       0.43565493       0.65949079 </v>
   <v>       0.56737035       0.43799900       0.62334428 </v>
   <v>       0.40833833       0.54095142       0.61883123 </v>
   <v>       0.39281906       0.45640593       0.64282633 </v>
   <v>       0.47271720       0.53251907       0.66403956 </v>
   <v>       0.65142186       0.49616034       0.46513877 </v>
   <v>       0.64362522       0.48928232       0.55215731 </v>
   <v>       0.93979363       0.42558857       0.65943210 </v>
   <v>       0.93853522       0.50553730       0.65870591 </v>
   <v>       0.86776366       0.42918115       0.62358321 </v>
   <v>       0.12920121       0.58883696       0.61913049 </v>
   <v>       0.06093993       0.60572491       0.64222340 </v>
   <v>       0.05592674       0.52535221       0.66448934 </v>
   <v>       0.84161014       0.34638318       0.46505176 </v>
   <v>       0.84247417       0.35383545       0.55210951 </v>
   <v>       0.45301273       0.06320241       0.35937082 </v>
   <v>       0.53850193       0.13086464       0.38204190 </v>
   <v>       0.52746380       0.05698303       0.33668057 </v>
   <v>       0.43344675       0.86859866       0.37822833 </v>
   <v>       0.43093581       0.94084118       0.34228701 </v>
   <v>       0.51047755       0.93907378       0.34263912 </v>
   <v>       0.48535870       0.84360642       0.44903776 </v>
   <v>       0.49304225       0.84306738       0.53600105 </v>
   <v>       0.60575704       0.54378893       0.35777168 </v>
   <v>       0.58927898       0.45883074       0.38144817 </v>
   <v>       0.52552251       0.46828202       0.33613851 </v>
   <v>       0.43024062       0.56173714       0.37691532 </v>
   <v>       0.50538329       0.56526466       0.34115244 </v>
   <v>       0.42487497       0.48495881       0.34165633 </v>
   <v>       0.35428754       0.51055769       0.44815147 </v>
   <v>       0.34644796       0.50348342       0.53514159 </v>
   <v>       0.93366958       0.39078569       0.35844770 </v>
   <v>       0.86650604       0.40930024       0.38157400 </v>
   <v>       0.94021925       0.47182946       0.33609355 </v>
   <v>       0.12823534       0.56648817       0.37714607 </v>
   <v>       0.05640445       0.49157455       0.34126281 </v>
   <v>       0.05737120       0.57264339       0.34189098 </v>
   <v>       0.15313013       0.64287588       0.44828600 </v>
   <v>       0.15415240       0.65065544       0.53530769 </v>
   <v>       0.36053755       0.73403507       0.50135734 </v>
   <v>       0.26280933       0.62698775       0.50045338 </v>
   <v>       0.36975476       0.63606858       0.50053969 </v>
   <v>       0.63510399       0.26452224       0.50034653 </v>
   <v>       0.73351172       0.37109213       0.50052411 </v>
   <v>       0.62710070       0.36317468       0.50047668 </v>
   <v>       0.51328191       0.06992339       0.50352335 </v>
   <v>       0.51183676       0.03490651       0.56316964 </v>
   <v>       0.49393321       0.96354978       0.56081358 </v>
   <v>       0.52996428       0.07260385       0.62977523 </v>
   <v>       0.48849205       0.92501950       0.62522606 </v>
   <v>       0.52937298       0.14549841       0.50614947 </v>
   <v>       0.55356199       0.48443623       0.50270114 </v>
   <v>       0.51991776       0.48568891       0.56231989 </v>
   <v>       0.46616004       0.50306237       0.55990139 </v>
   <v>       0.53981261       0.46782606       0.62890016 </v>
   <v>       0.43315467       0.50853328       0.62432307 </v>
   <v>       0.61340698       0.46899445       0.50553702 </v>
   <v>       0.92780903       0.44403962       0.50287358 </v>
   <v>       0.96268512       0.47773353       0.56247198 </v>
   <v>       0.03377701       0.53136476       0.56002711 </v>
   <v>       0.92503780       0.45821848       0.62907307 </v>
   <v>       0.07211080       0.56466498       0.62440189 </v>
   <v>       0.85256576       0.38433428       0.50560792 </v>
   <v>       0.48070535       0.92898614       0.49860279 </v>
   <v>       0.48183831       0.96390521       0.43899778 </v>
   <v>       0.49981098       0.03527575       0.44132358 </v>
   <v>       0.50500945       0.07372092       0.37691286 </v>
   <v>       0.46327172       0.92594553       0.37251276 </v>
   <v>       0.46541226       0.85367895       0.49584152 </v>
   <v>       0.44453402       0.51580861       0.49762012 </v>
   <v>       0.47820765       0.51459969       0.43800724 </v>
   <v>       0.53196714       0.49722292       0.44042796 </v>
   <v>       0.56497257       0.49173462       0.37601418 </v>
   <v>       0.45839320       0.53250133       0.37140846 </v>
   <v>       0.38445369       0.53089888       0.49479186 </v>
   <v>       0.06817482       0.55270074       0.49776763 </v>
   <v>       0.03326664       0.51902013       0.43816055 </v>
   <v>       0.96214187       0.46549641       0.44058819 </v>
   <v>       0.92350127       0.43252193       0.37623242 </v>
   <v>       0.07096595       0.53870461       0.37157491 </v>
   <v>       0.14332992       0.61259360       0.49489552 </v>
  </varray>
 </structure>
 <calculation>
  <scstep>
   <time name="dav">  137.82  139.03</time>
   <time name="total">  137.98  139.19</time>
   <energy>
    <i name="alphaZ">     42.36578501 </i>
    <i name="ewald">  31578.94457005 </i>
    <i name="hartreedc"> -39904.83593640 </i>
    <i name="XCdc">    976.83265654 </i>
    <i name="pawpsdc">  24406.13725486 </i>
    <i name="pawaedc"> -24453.52189248 </i>
    <i name="eentropy">     -0.00000000 </i>
    <i name="bandstr">  -3354.36651709 </i>
    <i name="atom">  10028.91911716 </i>
    <i name="e_fr_energy">   -679.52496236 </i>
    <i name="e_wo_entrp">   -679.52496236 </i>
    <i name="e_0_energy">   -679.52496236 </i>
   </energy>
  </scstep>
  <scstep>
   <time name="dav">  148.22  149.48</time>
   <time name="total">  148.23  149.49</time>
   <energy>
    <i name="e_fr_energy">   -680.20762369 </i>
    <i name="e_wo_entrp">   -680.20762369 </i>
    <i name="e_0_energy">   -680.20762369 </i>
   </energy>
  </scstep>
  <scstep>
   <time name="dav">  163.40  164.80</time>
   <time name="total">  163.41  164.81</time>
   <energy>
    <i name="e_fr_energy">   -680.22177256 </i>
    <i name="e_wo_entrp">   -680.22177256 </i>
    <i name="e_0_energy">   -680.22177256 </i>
   </energy>
  </scstep>
  <scstep>
   <time name="dav">  153.77  155.11</time>
   <time name="total">  153.78  155.12</time>
   <energy>
    <i name="e_fr_energy">   -680.22210073 </i>
    <i name="e_wo_entrp">   -680.22210073 </i>
    <i name="e_0_energy">   -680.22210073 </i>
   </energy>
  </scstep>
  <scstep>
   <time name="dav">  145.39  146.70</time>
   <time name="total">  145.41  146.71</time>
   <energy>
    <i name="e_fr_energy">   -680.22211575 </i>
    <i name="e_wo_entrp">   -680.22211575 </i>
    <i name="e_0_energy">   -680.22211575 </i>
   </energy>
  </scstep>
  <scstep>
   <time name="dav">  126.39  127.48</time>
   <time name="total">  126.39  127.49</time>
   <energy>
    <i name="alphaZ">     42.36578501 </i>
    <i name="ewald">  31578.94457005 </i>
    <i name="hartreedc"> -39904.83593640 </i>
    <i name="XCdc">    976.83265654 </i>
    <i name="pawpsdc">  24406.13725486 </i>
    <i name="pawaedc"> -24453.52189248 </i>
    <i name="eentropy">     -0.00000000 </i>
    <i name="bandstr">  -3355.06367124 </i>
    <i name="atom">  10028.91911716 </i>
    <i name="e_fr_energy">   -680.22211651 </i>
    <i name="e_wo_entrp">   -680.22211651 </i>
    <i name="e_0_energy">   -680.22211651 </i>
   </energy>
  </scstep>
  <structure>
   <crystal>
    <varray name="basis" >
     <v>      21.95277467       0.02396482       0.00000000 </v>
     <v>     -10.95560606      18.97939457       0.00000000 </v>
     <v>       0.00000000       0.00000000      20.00000000 </v>
    </varray>
    <i name="volume">   8338.25843148 </i>
    <varray name="rec_basis" >
     <v>       0.04552364       0.02627792       0.00000000 </v>
     <v>      -0.00005748       0.05265554       0.00000000 </v>
     <v>       0.00000000       0.00000000       0.05000000 </v>
    </varray>
   </crystal>
   <varray name="positions" >
    <v>       0.28929047       0.69698663       0.50107026 </v>
    <v>       0.29989816       0.59269363       0.50003947 </v>
    <v>       0.40392744       0.70744539       0.50118692 </v>
    <v>       0.19174841       0.58553692       0.50011893 </v>
    <v>       0.41120439       0.60633156       0.50022952 </v>
    <v>       0.39013460       0.80522409       0.50180060 </v>
    <v>       0.70635296       0.30100916       0.50031704 </v>
    <v>       0.69704201       0.40602169       0.50081036 </v>
    <v>       0.59230032       0.29178526       0.50039050 </v>
    <v>       0.80463823       0.41195621       0.50047030 </v>
    <v>       0.58617296       0.39347051       0.50025784 </v>
    <v>       0.60482657       0.19325706       0.50035616 </v>
    <v>       0.17275842       0.53292840       0.49750668 </v>
    <v>       0.46374427       0.63988272       0.49850797 </v>
    <v>       0.35658577       0.82427473       0.49920199 </v>
    <v>       0.82409573       0.46464825       0.50299624 </v>
    <v>       0.53356452       0.36021697       0.50227347 </v>
    <v>       0.63791845       0.17366647       0.50304470 </v>
    <v>       0.48259393       0.05844036       0.65978509 </v>
    <v>       0.56300150       0.05841755       0.65975800 </v>
    <v>       0.55884983       0.12999119       0.62432795 </v>
    <v>       0.45546227       0.86784941       0.61986546 </v>
    <v>       0.54046371       0.93597873       0.64331893 </v>
    <v>       0.46528644       0.94128607       0.66516808 </v>
    <v>       0.50222566       0.15653839       0.46583832 </v>
    <v>       0.50954348       0.15598972       0.55279906 </v>
    <v>       0.57395542       0.51542263       0.65833156 </v>
    <v>       0.49290993       0.43565493       0.65949079 </v>
    <v>       0.56737035       0.43799900       0.62334428 </v>
    <v>       0.40833833       0.54095142       0.61883123 </v>
    <v>       0.39281906       0.45640593       0.64282633 </v>
    <v>       0.47271720       0.53251907       0.66403956 </v>
    <v>       0.65142186       0.49616034       0.46513877 </v>
    <v>       0.64362522       0.48928232       0.55215731 </v>
    <v>       0.93979363       0.42558857       0.65943210 </v>
    <v>       0.93853522       0.50553730       0.65870591 </v>
    <v>       0.86776366       0.42918115       0.62358321 </v>
    <v>       0.12920121       0.58883696       0.61913049 </v>
    <v>       0.06093993       0.60572491       0.64222340 </v>
    <v>       0.05592674       0.52535221       0.66448934 </v>
    <v>       0.84161014       0.34638318       0.46505176 </v>
    <v>       0.84247417       0.35383545       0.55210951 </v>
    <v>       0.45301273       0.06320241       0.35937082 </v>
    <v>       0.53850193       0.13086464       0.38204190 </v>
    <v>       0.52746380       0.05698303       0.33668057 </v>
    <v>       0.43344675       0.86859866       0.37822833 </v>
    <v>       0.43093581       0.94084118       0.34228701 </v>
    <v>       0.51047755       0.93907378       0.34263912 </v>
    <v>       0.48535870       0.84360642       0.44903776 </v>
    <v>       0.49304225       0.84306738       0.53600105 </v>
    <v>       0.60575704       0.54378893       0.35777168 </v>
    <v>       0.58927898       0.45883074       0.38144817 </v>
    <v>       0.52552251       0.46828202       0.33613851 </v>
    <v>       0.43024062       0.56173714       0.37691532 </v>
    <v>       0.50538329       0.56526466       0.34115244 </v>
    <v>       0.42487497       0.48495881       0.34165633 </v>
    <v>       0.35428754       0.51055769       0.44815147 </v>
    <v>       0.34644796       0.50348342       0.53514159 </v>
    <v>       0.93366958       0.39078569       0.35844770 </v>
    <v>       0.86650604       0.40930024       0.38157400 </v>
    <v>       0.94021925       0.47182946       0.33609355 </v>
    <v>       0.12823534       0.56648817       0.37714607 </v>
    <v>       0.05640445       0.49157455       0.34126281 </v>
    <v>       0.05737120       0.57264339       0.34189098 </v>
    <v>       0.15313013       0.64287588       0.44828600 </v>
    <v>       0.15415240       0.65065544       0.53530769 </v>
    <v>       0.36053755       0.73403507       0.50135734 </v>
    <v>       0.26280933       0.62698775       0.50045338 </v>
    <v>       0.36975476       0.63606858       0.50053969 </v>
    <v>       0.63510399       0.26452224       0.50034653 </v>
    <v>       0.73351172       0.37109213       0.50052411 </v>
    <v>       0.62710070       0.36317468       0.50047668 </v>
    <v>       0.51328191       0.06992339       0.50352335 </v>
    <v>       0.51183676       0.03490651       0.56316964 </v>
    <v>       0.49393321       0.96354978       0.56081358 </v>
    <v>       0.52996428       0.07260385       0.62977523 </v>
    <v>       0.48849205       0.92501950       0.62522606 </v>
    <v>       0.52937298       0.14549841       0.50614947 </v>
    <v>       0.55356199       0.48443623       0.50270114 </v>
    <v>       0.51991776       0.48568891       0.56231989 </v>
    <v>       0.46616004       0.50306237       0.55990139 </v>
    <v>       0.53981261       0.46782606       0.62890016 </v>
    <v>       0.43315467       0.50853328       0.62432307 </v>
    <v>       0.61340698       0.46899445       0.50553702 </v>
    <v>       0.92780903       0.44403962       0.50287358 </v>
    <v>       0.96268512       0.47773353       0.56247198 </v>
    <v>       0.03377701       0.53136476       0.56002711 </v>
    <v>       0.92503780       0.45821848       0.62907307 </v>
    <v>       0.07211080       0.56466498       0.62440189 </v>
    <v>       0.85256576       0.38433428       0.50560792 </v>
    <v>       0.48070535       0.92898614       0.49860279 </v>
    <v>       0.48183831       0.96390521       0.43899778 </v>
    <v>       0.49981098       0.03527575       0.44132358 </v>
    <v>       0.50500945       0.07372092       0.37691286 </v>
    <v>       0.46327172       0.92594553       0.37251276 </v>
    <v>       0.46541226       0.85367895       0.49584152 </v>
    <v>       0.44453402       0.51580861       0.49762012 </v>
    <v>       0.47820765       0.51459969       0.43800724 </v>
    <v>       0.53196714       0.49722292       0.44042796 </v>
    <v>       0.56497257       0.49173462       0.37601418 </v>
    <v>       0.45839320       0.53250133       0.37140846 </v>
    <v>       0.38445369       0.53089888       0.49479186 </v>
    <v>       0.06817482       0.55270074       0.49776763 </v>
    <v>       0.03326664       0.51902013       0.43816055 </v>
    <v>       0.96214187       0.46549641       0.44058819 </v>
    <v>       0.92350127       0.43252193       0.37623242 </v>
    <v>       0.07096595       0.53870461       0.37157491 </v>
    <v>       0.14332992       0.61259360       0.49489552 </v>
   </varray>
  </structure>
  <varray name="forces" >
   <v>       0.00303283      -0.00092494       0.00350196 </v>
   <v>       0.00311455       0.00143171      -0.00691367 </v>
   <v>      -0.00446940      -0.00166692       0.00127774 </v>
   <v>      -0.00003186      -0.00241741       0.00074221 </v>
   <v>      -0.00768329      -0.00093535       0.00334670 </v>
   <v>       0.00154340      -0.00491532       0.00264295 </v>
   <v>       0.00073545      -0.00209447       0.00097283 </v>
   <v>       0.00663538       0.00455213      -0.00448026 </v>
   <v>      -0.00231642      -0.00383793       0.00095527 </v>
   <v>      -0.00283551      -0.00267447      -0.00317604 </v>
   <v>      -0.00663224      -0.00192313      -0.00303726 </v>
   <v>       0.00298722      -0.00000191      -0.00123819 </v>
   <v>       0.00005532      -0.00364445      -0.00268810 </v>
   <v>       0.00271887       0.00468232       0.00042757 </v>
   <v>      -0.00231167      -0.00059587      -0.00144685 </v>
   <v>      -0.00016876       0.00225913      -0.00004964 </v>
   <v>       0.00417023       0.00497708      -0.00086172 </v>
   <v>      -0.00313956      -0.00126454      -0.00190215 </v>
   <v>      -0.00464613       0.00076580       0.00144809 </v>
   <v>      -0.00039081      -0.00144677       0.00059320 </v>
   <v>      -0.00060541       0.00114193      -0.00217262 </v>
   <v>       0.00134444      -0.00099247      -0.00056417 </v>
   <v>      -0.00231609       0.00083623      -0.00036792 </v>
   <v>       0.00019684       0.00098104       0.00271255 </v>
   <v>      -0.00001398       0.00081377      -0.00137268 </v>
   <v>      -0.00187356       0.00066615       0.00174001 </v>
   <v>      -0.00084957       0.00474519       0.00137934 </v>
   <v>       0.00313946       0.00182616      -0.00121080 </v>
   <v>       0.00054197       0.00096927      -0.00049346 </v>
   <v>      -0.00445372       0.00210263      -0.00316013 </v>
   <v>      -0.00005999      -0.00175448       0.00081469 </v>
   <v>       0.00230242      -0.00047683       0.00205458 </v>
   <v>      -0.00162560      -0.00190108      -0.00287720 </v>
   <v>       0.00025419       0.00282516      -0.00050556 </v>
   <v>      -0.00147152      -0.00114608       0.00047446 </v>
   <v>       0.00255619      -0.00334220       0.00087312 </v>
   <v>      -0.00330846      -0.00072800      -0.00069694 </v>
   <v>       0.00295799       0.00096164       0.00041567 </v>
   <v>       0.00259646      -0.00155311      -0.00043067 </v>
   <v>       0.00287761       0.00022350       0.00113065 </v>
   <v>      -0.00123547       0.00001064       0.00099763 </v>
   <v>       0.00254141      -0.00153259      -0.00003152 </v>
   <v>      -0.00132073      -0.00051321      -0.00031296 </v>
   <v>      -0.00059187      -0.00078397      -0.00024307 </v>
   <v>       0.00330447      -0.00011476      -0.00125541 </v>
   <v>       0.00208529      -0.00201766       0.00044641 </v>
   <v>       0.00166991      -0.00177122       0.00210793 </v>
   <v>       0.00176459      -0.00085422      -0.00205268 </v>
   <v>       0.00140087      -0.00170795       0.00191653 </v>
   <v>       0.00027714      -0.00155769       0.00091039 </v>
   <v>      -0.00114674       0.00236300       0.00151084 </v>
   <v>      -0.00060258       0.00037774      -0.00082749 </v>
   <v>      -0.00032273      -0.00049205      -0.00056399 </v>
   <v>      -0.00382962       0.00120535       0.00290866 </v>
   <v>       0.00280679       0.00116591      -0.00235513 </v>
   <v>      -0.00280673      -0.00346134      -0.00088109 </v>
   <v>       0.00123224      -0.00017583       0.00111179 </v>
   <v>       0.00015021      -0.00029998       0.00258572 </v>
   <v>       0.00173009      -0.00076338      -0.00059771 </v>
   <v>      -0.00014575      -0.00182387      -0.00039389 </v>
   <v>      -0.00020692      -0.00247566       0.00209412 </v>
   <v>       0.00000091       0.00148702      -0.00058296 </v>
   <v>      -0.00009001       0.00262466      -0.00244750 </v>
   <v>      -0.00045844       0.00136778      -0.00057501 </v>
   <v>      -0.00057247       0.00277140       0.00158152 </v>
   <v>       0.00127927      -0.00140526      -0.00104086 </v>
   <v>      -0.00097184      -0.00202893       0.00027899 </v>
   <v>      -0.00189274       0.00458104       0.00390178 </v>
   <v>       0.00499045      -0.00374660      -0.00249361 </v>
   <v>       0.00118163       0.00096704       0.00183864 </v>
   <v>      -0.00326460      -0.00182965       0.00077436 </v>
   <v>       0.00391424       0.00093459       0.00020917 </v>
   <v>      -0.00090303       0.00041603       0.00050729 </v>
   <v>      -0.00134494       0.00142219      -0.00338971 </v>
   <v>      -0.00073872       0.00028947       0.00187540 </v>
   <v>       0.00009043       0.00132576      -0.00377846 </v>
   <v>      -0.00012236      -0.00119881      -0.00024564 </v>
   <v>       0.00516106       0.00004665      -0.00153709 </v>
   <v>       0.00040786      -0.00147423      -0.00084315 </v>
   <v>       0.00541069      -0.00002831      -0.00132713 </v>
   <v>      -0.00050337       0.00299162      -0.00103981 </v>
   <v>      -0.00044977      -0.00327008       0.00016248 </v>
   <v>       0.00307293       0.00011979       0.00089332 </v>
   <v>      -0.00418499      -0.00204345       0.00188474 </v>
   <v>      -0.00035932       0.00146657      -0.00093389 </v>
   <v>       0.00131815      -0.00076700      -0.00295747 </v>
   <v>       0.00041690      -0.00112091      -0.00341431 </v>
   <v>       0.00172349       0.00160232      -0.00239051 </v>
   <v>      -0.00323618      -0.00070977       0.00053972 </v>
   <v>       0.00409211       0.00243106      -0.00022214 </v>
   <v>      -0.00123813       0.00529601       0.00050199 </v>
   <v>      -0.00030682      -0.00174392      -0.00143691 </v>
   <v>      -0.00027346      -0.00210142       0.00162746 </v>
   <v>       0.00064215       0.00113295       0.00194684 </v>
   <v>       0.00103227       0.00261072       0.00272131 </v>
   <v>      -0.00353365      -0.00187911      -0.00054059 </v>
   <v>      -0.00578049       0.00072751      -0.00029804 </v>
   <v>       0.00233218       0.00128112       0.00210841 </v>
   <v>      -0.00052077      -0.00051043       0.00039667 </v>
   <v>       0.00195486      -0.00150038      -0.00117525 </v>
   <v>      -0.00283062      -0.00262882       0.00431508 </v>
   <v>      -0.00029227       0.00298645       0.00128048 </v>
   <v>      -0.00079210      -0.00208771      -0.00070570 </v>
   <v>       0.00004703       0.00216578       0.00120107 </v>
   <v>       0.00175560       0.00203046       0.00186603 </v>
   <v>       0.00068450       0.00570134      -0.00077351 </v>
   <v>      -0.00283345      -0.00031561       0.00599809 </v>
   <v>      -0.00332527       0.00031267       0.00080575 </v>
  </varray>
  <varray name="stress" >
   <v>       0.01215391      -0.00169923       0.00130239 </v>
   <v>      -0.00169923       0.00771129       0.01315306 </v>
   <v>       0.00130239       0.01315305      -0.28451564 </v>
  </varray>
  <energy>
   <i name="e_fr_energy">   -682.43312579 </i>
   <i name="e_wo_entrp">   -682.43312579 </i>
   <i name="e_0_energy">     -0.00000000 </i>
  </energy>
  <time name="totalsc">  983.84  992.63</time>
  <eigenvalues>
   <array>
    <dimension dim="1">band</dimension>
    <dimension dim="2">kpoint</dimension>
    <dimension dim="3">spin</dimension>
    <field>eigene</field>
    <field>occ</field>
    <set>
     <set comment="spin 1">
      <set comment="kpoint 1">
       <r>  -24.7781    1.0000 </r>
       <r>  -24.7776    1.0000 </r>
       <r>  -23.2417    1.0000 </r>
       <r>  -23.2397    1.0000 </r>
       <r>  -23.2334    1.0000 </r>
       <r>  -23.2314    1.0000 </r>
       <r>  -21.8908    1.0000 </r>
       <r>  -21.8090    1.0000 </r>
       <r>  -21.0779    1.0000 </r>
       <r>  -21.0761    1.0000 </r>
       <r>  -20.7771    1.0000 </r>
       <r>  -20.6207    1.0000 </r>
       <r>  -20.6200    1.0000 </r>
       <r>  -20.3847    1.0000 </r>
       <r>  -20.3845    1.0000 </r>
       <r>  -19.2209    1.0000 </r>
       <r>  -19.2195    1.0000 </r>
       <r>  -19.2184    1.0000 </r>
       <r>  -18.9634    1.0000 </r>
       <r>  -18.9625    1.0000 </r>
       <r>  -18.9009    1.0000 </r>
       <r>  -17.4923    1.0000 </r>
       <r>  -17.4898    1.0000 </r>
       <r>  -17.3771    1.0000 </r>
       <r>  -17.3744    1.0000 </r>
       <r>  -17.3723    1.0000 </r>
       <r>  -17.2913    1.0000 </r>
       <r>  -16.8439    1.0000 </r>
       <r>  -16.8418    1.0000 </r>
       <r>  -16.7365    1.0000 </r>
       <r>  -16.7336    1.0000 </r>
       <r>  -16.7077    1.0000 </r>
       <r>  -16.5413    1.0000 </r>
       <r>  -15.5649    1.0000 </r>
       <r>  -15.5634    1.0000 </r>
       <r>  -15.2973    1.0000 </r>
       <r>  -15.1164    1.0000 </r>
       <r>  -15.1149    1.0000 </r>
       <r>  -15.1134    1.0000 </r>
       <r>  -14.8704    1.0000 </r>
       <r>  -14.8686    1.0000 </r>
       <r>  -14.5123    1.0000 </r>
       <r>  -14.5120    1.0000 </r>
       <r>  -14.0707    1.0000 </r>
       <r>  -13.6576    1.0000 </r>
       <r>  -13.2161    1.0000 </r>
       <r>  -13.2137    1.0000 </r>
       <r>  -13.0087    1.0000 </r>
       <r>  -12.9883    1.0000 </r>
       <r>  -12.9861    1.0000 </r>
       <r>  -12.9688    1.0000 </r>
       <r>  -12.5096    1.0000 </r>
       <r>  -12.2895    1.0000 </r>
       <r>  -12.0752    1.0000 </r>
       <r>  -12.0591    1.0000 </r>
       <r>  -12.0579    1.0000 </r>
       <r>  -11.5387    1.0000 </r>
       <r>  -11.5380    1.0000 </r>
       <r>  -11.4877    1.0000 </r>
       <r>  -11.4874    1.0000 </r>
       <r>  -10.8275    1.0000 </r>
       <r>  -10.7381    1.0000 </r>
       <r>  -10.6404    1.0000 </r>
       <r>  -10.6401    1.0000 </r>
       <r>  -10.5238    1.0000 </r>
       <r>  -10.5222    1.0000 </r>
       <r>  -10.5027    1.0000 </r>
       <r>  -10.3163    1.0000 </r>
       <r>  -10.3157    1.0000 </r>
       <r>  -10.2786    1.0000 </r>
       <r>  -10.0303    1.0000 </r>
       <r>  -10.0277    1.0000 </r>
       <r>   -9.9323    1.0000 </r>
       <r>   -9.9180    1.0000 </r>
       <r>   -9.9169    1.0000 </r>
       <r>   -9.9160    1.0000 </r>
       <r>   -9.8194    1.0000 </r>
       <r>   -9.8191    1.0000 </r>
       <r>   -9.8176    1.0000 </r>
       <r>   -9.5848    1.0000 </r>
       <r>   -9.5454    1.0000 </r>
       <r>   -9.5127    1.0000 </r>
       <r>   -9.5119    1.0000 </r>
       <r>   -9.4942    1.0000 </r>
       <r>   -9.4927    1.0000 </r>
       <r>   -9.4817    1.0000 </r>
       <r>   -9.3965    1.0000 </r>
       <r>   -9.3922    1.0000 </r>
       <r>   -9.1097    1.0000 </r>
       <r>   -9.0973    1.0000 </r>
       <r>   -9.0956    1.0000 </r>
       <r>   -9.0779    1.0000 </r>
       <r>   -9.0697    1.0000 </r>
       <r>   -9.0682    1.0000 </r>
       <r>   -8.8834    1.0000 </r>
       <r>   -8.8801    1.0000 </r>
       <r>   -8.8783    1.0000 </r>
       <r>   -8.8002    1.0000 </r>
       <r>   -8.7283    1.0000 </r>
       <r>   -8.6806    1.0000 </r>
       <r>   -8.6792    1.0000 </r>
       <r>   -8.5767    1.0000 </r>
       <r>   -8.5689    1.0000 </r>
       <r>   -8.5674    1.0000 </r>
       <r>   -8.3679    1.0000 </r>
       <r>   -8.3671    1.0000 </r>
       <r>   -8.3333    1.0000 </r>
       <r>   -8.3324    1.0000 </r>
       <r>   -8.3204    1.0000 </r>
       <r>   -8.0763    1.0000 </r>
       <r>   -8.0508    1.0000 </r>
       <r>   -8.0209    1.0000 </r>
       <r>   -7.5925    1.0000 </r>
       <r>   -7.5908    1.0000 </r>
       <r>   -7.5056    1.0000 </r>
       <r>   -7.5033    1.0000 </r>
       <r>   -7.4182    1.0000 </r>
       <r>   -7.4163    1.0000 </r>
       <r>   -7.3744    1.0000 </r>
       <r>   -7.2456    1.0000 </r>
       <r>   -7.1528    1.0000 </r>
       <r>   -7.1512    1.0000 </r>
       <r>   -7.1161    1.0000 </r>
       <r>   -7.0913    1.0000 </r>
       <r>   -7.0884    1.0000 </r>
       <r>   -5.4417    1.0000 </r>
       <r>   -5.4415    1.0000 </r>
       <r>   -5.2859    1.0000 </r>
       <r>   -5.2105    1.0000 </r>
       <r>   -5.2096    1.0000 </r>
       <r>   -5.0613    1.0000 </r>
       <r>   -5.0535    1.0000 </r>
       <r>   -5.0526    1.0000 </r>
       <r>   -5.0161    1.0000 </r>
       <r>   -5.0146    1.0000 </r>
       <r>   -4.9543    1.0000 </r>
       <r>   -4.8905    1.0000 </r>
       <r>   -4.7574    1.0000 </r>
       <r>   -4.7558    1.0000 </r>
       <r>   -4.7393    1.0000 </r>
       <r>   -4.7377    1.0000 </r>
       <r>   -0.6532    0.0000 </r>
       <r>   -0.6130    0.0000 </r>
       <r>   -0.6123    0.0000 </r>
       <r>   -0.5163    0.0000 </r>
       <r>   -0.5141    0.0000 </r>
       <r>   -0.4431    0.0000 </r>
       <r>   -0.2978    0.0000 </r>
       <r>   -0.0523    0.0000 </r>
       <r>   -0.0497    0.0000 </r>
       <r>    0.0081    0.0000 </r>
       <r>    0.0084    0.0000 </r>
       <r>    0.0614    0.0000 </r>
       <r>    0.0922    0.0000 </r>
       <r>    0.0941    0.0000 </r>
       <r>    0.2023    0.0000 </r>
       <r>    0.2690    0.0000 </r>
       <r>    0.2707    0.0000 </r>
       <r>    0.3344    0.0000 </r>
       <r>    0.3367    0.0000 </r>
       <r>    0.4965    0.0000 </r>
       <r>    0.5509    0.0000 </r>
       <r>    0.6434    0.0000 </r>
       <r>    0.6916    0.0000 </r>
       <r>    0.6922    0.0000 </r>
       <r>    0.7834    0.0000 </r>
       <r>    0.7838    0.0000 </r>
       <r>    0.8748    0.0000 </r>
       <r>    0.9122    0.0000 </r>
       <r>    0.9298    0.0000 </r>
       <r>    0.9318    0.0000 </r>
       <r>    0.9883    0.0000 </r>
       <r>    0.9887    0.0000 </r>
       <r>    1.0512    0.0000 </r>
       <r>    1.0874    0.0000 </r>
       <r>    1.0893    0.0000 </r>
       <r>    1.1124    0.0000 </r>
       <r>    1.1911    0.0000 </r>
       <r>    1.2409    0.0000 </r>
       <r>    1.2884    0.0000 </r>
       <r>    1.3011    0.0000 </r>
       <r>    1.3042    0.0000 </r>
       <r>    1.3319    0.0000 </r>
       <r>    1.3731    0.0000 </r>
       <r>    1.3864    0.0000 </r>
       <r>    1.3870    0.0000 </r>
       <r>    1.4195    0.0000 </r>
       <r>    1.4939    0.0000 </r>
       <r>    1.4951    0.0000 </r>
       <r>    1.5675    0.0000 </r>
       <r>    1.5697    0.0000 </r>
       <r>    1.6117    0.0000 </r>
       <r>    1.6236    0.0000 </r>
       <r>    1.6243    0.0000 </r>
       <r>    1.6557    0.0000 </r>
       <r>    1.6566    0.0000 </r>
       <r>    1.6718    0.0000 </r>
       <r>    1.7084    0.0000 </r>
       <r>    1.7092    0.0000 </r>
       <r>    1.8380    0.0000 </r>
       <r>    1.8438    0.0000 </r>
       <r>    1.8451    0.0000 </r>
       <r>    1.8753    0.0000 </r>
       <r>    1.8758    0.0000 </r>
       <r>    1.8888    0.0000 </r>
       <r>    1.9209    0.0000 </r>
       <r>    1.9233    0.0000 </r>
       <r>    1.9802    0.0000 </r>
      </set>
      <set comment="kpoint 2">
       <r>  -24.7781    1.0000 </r>
       <r>  -24.7776    1.0000 </r>
       <r>  -23.2417    1.0000 </r>
       <r>  -23.2397    1.0000 </r>
       <r>  -23.2334    1.0000 </r>
       <r>  -23.2314    1.0000 </r>
       <r>  -21.8907    1.0000 </r>
       <r>  -21.8091    1.0000 </r>
       <r>  -21.0778    1.0000 </r>
       <r>  -21.0759    1.0000 </r>
       <r>  -20.7781    1.0000 </r>
       <r>  -20.6204    1.0000 </r>
       <r>  -20.6193    1.0000 </r>
       <r>  -20.3848    1.0000 </r>
       <r>  -20.3846    1.0000 </r>
       <r>  -19.2209    1.0000 </r>
       <r>  -19.2195    1.0000 </r>
       <r>  -19.2184    1.0000 </r>
       <r>  -18.9633    1.0000 </r>
       <r>  -18.9625    1.0000 </r>
       <r>  -18.9010    1.0000 </r>
       <r>  -17.4921    1.0000 </r>
       <r>  -17.4897    1.0000 </r>
       <r>  -17.3771    1.0000 </r>
       <r>  -17.3744    1.0000 </r>
       <r>  -17.3723    1.0000 </r>
       <r>  -17.2916    1.0000 </r>
       <r>  -16.8439    1.0000 </r>
       <r>  -16.8418    1.0000 </r>
       <r>  -16.7377    1.0000 </r>
       <r>  -16.7340    1.0000 </r>
       <r>  -16.7060    1.0000 </r>
       <r>  -16.5414    1.0000 </r>
       <r>  -15.5648    1.0000 </r>
       <r>  -15.5632    1.0000 </r>
       <r>  -15.2979    1.0000 </r>
       <r>  -15.1164    1.0000 </r>
       <r>  -15.1149    1.0000 </r>
       <r>  -15.1134    1.0000 </r>
       <r>  -14.8702    1.0000 </r>
       <r>  -14.8681    1.0000 </r>
       <r>  -14.5127    1.0000 </r>
       <r>  -14.5122    1.0000 </r>
       <r>  -14.0699    1.0000 </r>
       <r>  -13.6584    1.0000 </r>
       <r>  -13.2157    1.0000 </r>
       <r>  -13.2135    1.0000 </r>
       <r>  -13.0088    1.0000 </r>
       <r>  -12.9883    1.0000 </r>
       <r>  -12.9861    1.0000 </r>
       <r>  -12.9689    1.0000 </r>
       <r>  -12.5094    1.0000 </r>
       <r>  -12.2899    1.0000 </r>
       <r>  -12.0751    1.0000 </r>
       <r>  -12.0591    1.0000 </r>
       <r>  -12.0579    1.0000 </r>
       <r>  -11.5385    1.0000 </r>
       <r>  -11.5379    1.0000 </r>
       <r>  -11.4877    1.0000 </r>
       <r>  -11.4875    1.0000 </r>
       <r>  -10.8273    1.0000 </r>
       <r>  -10.7380    1.0000 </r>
       <r>  -10.6410    1.0000 </r>
       <r>  -10.6407    1.0000 </r>
       <r>  -10.5231    1.0000 </r>
       <r>  -10.5214    1.0000 </r>
       <r>  -10.5041    1.0000 </r>
       <r>  -10.3159    1.0000 </r>
       <r>  -10.3146    1.0000 </r>
       <r>  -10.2785    1.0000 </r>
       <r>  -10.0316    1.0000 </r>
       <r>  -10.0280    1.0000 </r>
       <r>   -9.9314    1.0000 </r>
       <r>   -9.9229    1.0000 </r>
       <r>   -9.9172    1.0000 </r>
       <r>   -9.9105    1.0000 </r>
       <r>   -9.8194    1.0000 </r>
       <r>   -9.8191    1.0000 </r>
       <r>   -9.8176    1.0000 </r>
       <r>   -9.5889    1.0000 </r>
       <r>   -9.5459    1.0000 </r>
       <r>   -9.5128    1.0000 </r>
       <r>   -9.5120    1.0000 </r>
       <r>   -9.4928    1.0000 </r>
       <r>   -9.4908    1.0000 </r>
       <r>   -9.4815    1.0000 </r>
       <r>   -9.3961    1.0000 </r>
       <r>   -9.3914    1.0000 </r>
       <r>   -9.1096    1.0000 </r>
       <r>   -9.0973    1.0000 </r>
       <r>   -9.0956    1.0000 </r>
       <r>   -9.0780    1.0000 </r>
       <r>   -9.0697    1.0000 </r>
       <r>   -9.0682    1.0000 </r>
       <r>   -8.8834    1.0000 </r>
       <r>   -8.8801    1.0000 </r>
       <r>   -8.8783    1.0000 </r>
       <r>   -8.8001    1.0000 </r>
       <r>   -8.7294    1.0000 </r>
       <r>   -8.6806    1.0000 </r>
       <r>   -8.6793    1.0000 </r>
       <r>   -8.5767    1.0000 </r>
       <r>   -8.5689    1.0000 </r>
       <r>   -8.5674    1.0000 </r>
       <r>   -8.3674    1.0000 </r>
       <r>   -8.3669    1.0000 </r>
       <r>   -8.3333    1.0000 </r>
       <r>   -8.3324    1.0000 </r>
       <r>   -8.3202    1.0000 </r>
       <r>   -8.0765    1.0000 </r>
       <r>   -8.0507    1.0000 </r>
       <r>   -8.0210    1.0000 </r>
       <r>   -7.5925    1.0000 </r>
       <r>   -7.5907    1.0000 </r>
       <r>   -7.5057    1.0000 </r>
       <r>   -7.5034    1.0000 </r>
       <r>   -7.4182    1.0000 </r>
       <r>   -7.4163    1.0000 </r>
       <r>   -7.3744    1.0000 </r>
       <r>   -7.2454    1.0000 </r>
       <r>   -7.1528    1.0000 </r>
       <r>   -7.1512    1.0000 </r>
       <r>   -7.1160    1.0000 </r>
       <r>   -7.0913    1.0000 </r>
       <r>   -7.0884    1.0000 </r>
       <r>   -5.4417    1.0000 </r>
       <r>   -5.4414    1.0000 </r>
       <r>   -5.2866    1.0000 </r>
       <r>   -5.2103    1.0000 </r>
       <r>   -5.2091    1.0000 </r>
       <r>   -5.0613    1.0000 </r>
       <r>   -5.0536    1.0000 </r>
       <r>   -5.0527    1.0000 </r>
       <r>   -5.0162    1.0000 </r>
       <r>   -5.0147    1.0000 </r>
       <r>   -4.9541    1.0000 </r>
       <r>   -4.8906    1.0000 </r>
       <r>   -4.7574    1.0000 </r>
       <r>   -4.7558    1.0000 </r>
       <r>   -4.7393    1.0000 </r>
       <r>   -4.7377    1.0000 </r>
       <r>   -0.6532    0.0000 </r>
       <r>   -0.6131    0.0000 </r>
       <r>   -0.6123    0.0000 </r>
       <r>   -0.5163    0.0000 </r>
       <r>   -0.5141    0.0000 </r>
       <r>   -0.4432    0.0000 </r>
       <r>   -0.2975    0.0000 </r>
       <r>   -0.0530    0.0000 </r>
       <r>   -0.0498    0.0000 </r>
       <r>    0.0081    0.0000 </r>
       <r>    0.0084    0.0000 </r>
       <r>    0.0617    0.0000 </r>
       <r>    0.0921    0.0000 </r>
       <r>    0.0941    0.0000 </r>
       <r>    0.2033    0.0000 </r>
       <r>    0.2689    0.0000 </r>
       <r>    0.2707    0.0000 </r>
       <r>    0.3342    0.0000 </r>
       <r>    0.3366    0.0000 </r>
       <r>    0.4976    0.0000 </r>
       <r>    0.5512    0.0000 </r>
       <r>    0.6438    0.0000 </r>
       <r>    0.6907    0.0000 </r>
       <r>    0.6919    0.0000 </r>
       <r>    0.7834    0.0000 </r>
       <r>    0.7840    0.0000 </r>
       <r>    0.8715    0.0000 </r>
       <r>    0.9088    0.0000 </r>
       <r>    0.9301    0.0000 </r>
       <r>    0.9316    0.0000 </r>
       <r>    0.9899    0.0000 </r>
       <r>    0.9924    0.0000 </r>
       <r>    1.0524    0.0000 </r>
       <r>    1.0881    0.0000 </r>
       <r>    1.0900    0.0000 </r>
       <r>    1.1131    0.0000 </r>
       <r>    1.1909    0.0000 </r>
       <r>    1.2407    0.0000 </r>
       <r>    1.2885    0.0000 </r>
       <r>    1.2899    0.0000 </r>
       <r>    1.3033    0.0000 </r>
       <r>    1.3414    0.0000 </r>
       <r>    1.3659    0.0000 </r>
       <r>    1.3862    0.0000 </r>
       <r>    1.3899    0.0000 </r>
       <r>    1.4246    0.0000 </r>
       <r>    1.4959    0.0000 </r>
       <r>    1.4965    0.0000 </r>
       <r>    1.5653    0.0000 </r>
       <r>    1.5698    0.0000 </r>
       <r>    1.6103    0.0000 </r>
       <r>    1.6229    0.0000 </r>
       <r>    1.6240    0.0000 </r>
       <r>    1.6542    0.0000 </r>
       <r>    1.6563    0.0000 </r>
       <r>    1.6751    0.0000 </r>
       <r>    1.7086    0.0000 </r>
       <r>    1.7092    0.0000 </r>
       <r>    1.8387    0.0000 </r>
       <r>    1.8423    0.0000 </r>
       <r>    1.8442    0.0000 </r>
       <r>    1.8733    0.0000 </r>
       <r>    1.8737    0.0000 </r>
       <r>    1.8821    0.0000 </r>
       <r>    1.9240    0.0000 </r>
       <r>    1.9304    0.0000 </r>
       <r>    1.9798    0.0000 </r>
      </set>
      <set comment="kpoint 3">
       <r>  -24.7781    1.0000 </r>
       <r>  -24.7776    1.0000 </r>
       <r>  -23.2417    1.0000 </r>
       <r>  -23.2397    1.0000 </r>
       <r>  -23.2334    1.0000 </r>
       <r>  -23.2314    1.0000 </r>
       <r>  -21.8904    1.0000 </r>
       <r>  -21.8095    1.0000 </r>
       <r>  -21.0775    1.0000 </r>
       <r>  -21.0752    1.0000 </r>
       <r>  -20.7812    1.0000 </r>
       <r>  -20.6203    1.0000 </r>
       <r>  -20.6166    1.0000 </r>
       <r>  -20.3855    1.0000 </r>
       <r>  -20.3846    1.0000 </r>
       <r>  -19.2209    1.0000 </r>
       <r>  -19.2195    1.0000 </r>
       <r>  -19.2184    1.0000 </r>
       <r>  -18.9632    1.0000 </r>
       <r>  -18.9624    1.0000 </r>
       <r>  -18.9013    1.0000 </r>
       <r>  -17.4917    1.0000 </r>
       <r>  -17.4893    1.0000 </r>
       <r>  -17.3772    1.0000 </r>
       <r>  -17.3744    1.0000 </r>
       <r>  -17.3723    1.0000 </r>
       <r>  -17.2926    1.0000 </r>
       <r>  -16.8438    1.0000 </r>
       <r>  -16.8417    1.0000 </r>
       <r>  -16.7412    1.0000 </r>
       <r>  -16.7343    1.0000 </r>
       <r>  -16.7018    1.0000 </r>
       <r>  -16.5418    1.0000 </r>
       <r>  -15.5645    1.0000 </r>
       <r>  -15.5626    1.0000 </r>
       <r>  -15.2997    1.0000 </r>
       <r>  -15.1164    1.0000 </r>
       <r>  -15.1149    1.0000 </r>
       <r>  -15.1134    1.0000 </r>
       <r>  -14.8701    1.0000 </r>
       <r>  -14.8663    1.0000 </r>
       <r>  -14.5146    1.0000 </r>
       <r>  -14.5122    1.0000 </r>
       <r>  -14.0678    1.0000 </r>
       <r>  -13.6609    1.0000 </r>
       <r>  -13.2151    1.0000 </r>
       <r>  -13.2122    1.0000 </r>
       <r>  -13.0090    1.0000 </r>
       <r>  -12.9883    1.0000 </r>
       <r>  -12.9861    1.0000 </r>
       <r>  -12.9693    1.0000 </r>
       <r>  -12.5086    1.0000 </r>
       <r>  -12.2912    1.0000 </r>
       <r>  -12.0750    1.0000 </r>
       <r>  -12.0592    1.0000 </r>
       <r>  -12.0579    1.0000 </r>
       <r>  -11.5382    1.0000 </r>
       <r>  -11.5377    1.0000 </r>
       <r>  -11.4879    1.0000 </r>
       <r>  -11.4875    1.0000 </r>
       <r>  -10.8266    1.0000 </r>
       <r>  -10.7376    1.0000 </r>
       <r>  -10.6428    1.0000 </r>
       <r>  -10.6424    1.0000 </r>
       <r>  -10.5212    1.0000 </r>
       <r>  -10.5189    1.0000 </r>
       <r>  -10.5078    1.0000 </r>
       <r>  -10.3160    1.0000 </r>
       <r>  -10.3099    1.0000 </r>
       <r>  -10.2783    1.0000 </r>
       <r>  -10.0355    1.0000 </r>
[...]
       <r>   -21.4994     0.0000    16.0000 </r>
       <r>   -21.4011     0.0000    16.0000 </r>
       <r>   -21.3028     0.0000    16.0000 </r>
       <r>   -21.2046     0.0000    16.0000 </r>
       <r>   -21.1063     0.0004    16.0000 </r>
       <r>   -21.0080    31.1659    19.0628 </r>
       <r>   -20.9098    13.5504    20.8651 </r>
       <r>   -20.8115     5.1774    21.5755 </r>
       <r>   -20.7132     3.0512    22.0000 </r>
       <r>   -20.6149    17.4471    23.7146 </r>
       <r>   -20.5167     6.1473    24.9708 </r>
       <r>   -20.4184    17.8022    27.1497 </r>
       <r>   -20.3201    26.1163    30.0000 </r>
       <r>   -20.2219     0.0000    30.0000 </r>
       <r>   -20.1236     0.0000    30.0000 </r>
       <r>   -20.0253     0.0000    30.0000 </r>
       <r>   -19.9270     0.0000    30.0000 </r>
       <r>   -19.8288     0.0000    30.0000 </r>
       <r>   -19.7305     0.0000    30.0000 </r>
       <r>   -19.6322     0.0000    30.0000 </r>
       <r>   -19.5339     0.0000    30.0000 </r>
       <r>   -19.4357     0.0000    30.0000 </r>
       <r>   -19.3374     0.0000    30.0000 </r>
       <r>   -19.2391     0.1912    30.0188 </r>
       <r>   -19.1409    40.6143    36.0000 </r>
       <r>   -19.0426     0.0000    36.0000 </r>
       <r>   -18.9443    33.0440    39.2473 </r>
       <r>   -18.8460    15.5930    42.0000 </r>
       <r>   -18.7478     0.0000    42.0000 </r>
       <r>   -18.6495     0.0000    42.0000 </r>
       <r>   -18.5512     0.0000    42.0000 </r>
       <r>   -18.4530     0.0000    42.0000 </r>
       <r>   -18.3547     0.0000    42.0000 </r>
       <r>   -18.2564     0.0000    42.0000 </r>
       <r>   -18.1581     0.0000    42.0000 </r>
       <r>   -18.0599     0.0000    42.0000 </r>
       <r>   -17.9616     0.0000    42.0000 </r>
       <r>   -17.8633     0.0000    42.0000 </r>
       <r>   -17.7651     0.0000    42.0000 </r>
       <r>   -17.6668     0.0000    42.0000 </r>
       <r>   -17.5685     0.0000    42.0000 </r>
       <r>   -17.4702    26.1266    44.5675 </r>
       <r>   -17.3720    53.4429    50.0521 </r>
       <r>   -17.2737    13.2077    53.9988 </r>
       <r>   -17.1754     0.0000    54.0000 </r>
       <r>   -17.0771     0.0000    54.0000 </r>
       <r>   -16.9789     0.0000    54.0000 </r>
       <r>   -16.8806     0.0000    54.0000 </r>
       <r>   -16.7823    54.3206    59.3382 </r>
       <r>   -16.6841    28.1886    62.3369 </r>
       <r>   -16.5858    16.7312    64.1443 </r>
       <r>   -16.4875    10.5112    66.0000 </r>
       <r>   -16.3892     0.0000    66.0000 </r>
       <r>   -16.2910     0.0000    66.0000 </r>
       <r>   -16.1927     0.0000    66.0000 </r>
       <r>   -16.0944     0.0000    66.0000 </r>
       <r>   -15.9962     0.0000    66.0000 </r>
       <r>   -15.8979     0.0000    66.0000 </r>
       <r>   -15.7996     0.0000    66.0000 </r>
       <r>   -15.7013     0.0000    66.0000 </r>
       <r>   -15.6031     0.0000    66.0000 </r>
       <r>   -15.5048    30.1947    68.9673 </r>
       <r>   -15.4065    14.3314    70.8087 </r>
       <r>   -15.3083     6.6271    71.7180 </r>
       <r>   -15.2100     0.0000    72.0000 </r>
       <r>   -15.1117    41.1186    76.0408 </r>
       <r>   -15.0134     0.0000    78.0000 </r>
       <r>   -14.9152     0.0000    78.0000 </r>
       <r>   -14.8169    26.7648    80.6302 </r>
       <r>   -14.7186     9.5526    81.6722 </r>
       <r>   -14.6203    11.5344    83.0003 </r>
       <r>   -14.5221     7.6066    83.8809 </r>
       <r>   -14.4238     0.0000    86.0000 </r>
       <r>   -14.3255     0.0000    86.0000 </r>
       <r>   -14.2273     0.0000    86.0000 </r>
       <r>   -14.1290     0.0000    86.0000 </r>
       <r>   -14.0307     5.2979    86.5206 </r>
       <r>   -13.9324     6.1737    87.2401 </r>
       <r>   -13.8342     8.1067    88.3634 </r>
       <r>   -13.7359     7.0477    89.2927 </r>
       <r>   -13.6376     6.4397    89.9997 </r>
       <r>   -13.5394     0.0000    90.0000 </r>
       <r>   -13.4411     0.0000    90.0000 </r>
       <r>   -13.3428     0.0000    90.0000 </r>
       <r>   -13.2445     0.0004    90.0000 </r>
       <r>   -13.1463    28.2876    92.7799 </r>
       <r>   -13.0480    16.8459    94.5889 </r>
       <r>   -12.9497    69.8630   101.9990 </r>
       <r>   -12.8515     0.0000   102.0000 </r>
       <r>   -12.7532     0.0000   102.0000 </r>
       <r>   -12.6549     0.0000   102.0000 </r>
       <r>   -12.5566     0.0000   102.0000 </r>
       <r>   -12.4584     9.8618   102.9691 </r>
       <r>   -12.3601    15.9995   105.0393 </r>
       <r>   -12.2618     8.1394   106.0000 </r>
       <r>   -12.1635     0.0000   106.0000 </r>
       <r>   -12.0653    25.3443   108.4906 </r>
       <r>   -11.9670     0.0000   112.0000 </r>
       <r>   -11.8687     0.0000   112.0000 </r>
       <r>   -11.7705     0.0000   112.0000 </r>
       <r>   -11.6722     0.0000   112.0000 </r>
       <r>   -11.5739     0.0000   112.0000 </r>
       <r>   -11.4756    80.7715   119.9376 </r>
       <r>   -11.3774     0.0000   120.0000 </r>
       <r>   -11.2791     0.0000   120.0000 </r>
       <r>   -11.1808     0.0000   120.0000 </r>
       <r>   -11.0826     0.0000   120.0000 </r>
       <r>   -10.9843     0.0000   120.0000 </r>
       <r>   -10.8860     0.0000   120.0000 </r>
       <r>   -10.7877     8.7535   120.8602 </r>
       <r>   -10.6895    44.8372   125.5065 </r>
       <r>   -10.5912    23.2350   129.3172 </r>
       <r>   -10.4929    14.9027   130.8979 </r>
       <r>   -10.3947    17.1304   132.9169 </r>
       <r>   -10.2964    42.2711   137.4213 </r>
       <r>   -10.1981     5.0570   138.6974 </r>
       <r>   -10.0998    22.3519   140.9966 </r>
       <r>   -10.0016    32.2036   144.5648 </r>
       <r>    -9.9033    33.4725   148.3564 </r>
       <r>    -9.8050    97.0290   158.9691 </r>
       <r>    -9.7067     2.9047   159.4855 </r>
       <r>    -9.6085     2.4404   159.8065 </r>
       <r>    -9.5102    53.4551   165.1201 </r>
       <r>    -9.4119    40.2324   172.0206 </r>
       <r>    -9.3137     5.1717   174.5085 </r>
       <r>    -9.2154     2.7117   174.8332 </r>
       <r>    -9.1171     9.9693   175.8798 </r>
       <r>    -9.0188    88.2903   187.9823 </r>
       <r>    -8.9206     8.6409   189.0159 </r>
       <r>    -8.8223    63.5684   195.3803 </r>
       <r>    -8.7240    28.9276   198.3431 </r>
       <r>    -8.6258    29.1697   202.0000 </r>
       <r>    -8.5275    61.0550   208.0000 </r>
       <r>    -8.4292     0.0000   208.0000 </r>
       <r>    -8.3309    61.7636   214.0696 </r>
       <r>    -8.2327     6.0823   216.9645 </r>
       <r>    -8.1344    14.5377   218.6956 </r>
       <r>    -8.0361    34.7100   222.4779 </r>
       <r>    -7.9379     0.0000   224.0000 </r>
       <r>    -7.8396     0.0000   224.0000 </r>
       <r>    -7.7413     0.0000   224.0000 </r>
       <r>    -7.6430     0.0000   224.0000 </r>
       <r>    -7.5448    47.5371   228.6716 </r>
       <r>    -7.4465    27.8123   232.0001 </r>
       <r>    -7.3482    61.0542   238.0000 </r>
       <r>    -7.2500     0.7853   238.0772 </r>
       <r>    -7.1517    42.8786   242.7806 </r>
       <r>    -7.0534    61.0550   250.0000 </r>
       <r>    -6.9551     0.0000   250.0000 </r>
       <r>    -6.8569     0.0000   250.0000 </r>
       <r>    -6.7586     0.0000   250.0000 </r>
       <r>    -6.6603     0.0000   250.0000 </r>
       <r>    -6.5620     0.0000   250.0000 </r>
       <r>    -6.4638     0.0000   250.0000 </r>
       <r>    -6.3655     0.0000   250.0000 </r>
       <r>    -6.2672     0.0000   250.0000 </r>
       <r>    -6.1690     0.0000   250.0000 </r>
       <r>    -6.0707     0.0000   250.0000 </r>
       <r>    -5.9724     0.0000   250.0000 </r>
       <r>    -5.8741     0.0000   250.0000 </r>
       <r>    -5.7759     0.0000   250.0000 </r>
       <r>    -5.6776     0.0000   250.0000 </r>
       <r>    -5.5793     0.0000   250.0000 </r>
       <r>    -5.4811     0.0000   250.0000 </r>
       <r>    -5.3828    42.1165   254.1389 </r>
       <r>    -5.2845    12.3944   255.9189 </r>
       <r>    -5.1862    24.8732   258.4443 </r>
       <r>    -5.0880    21.5891   260.7551 </r>
       <r>    -4.9897    88.5247   269.9997 </r>
       <r>    -4.8914    37.5807   273.6931 </r>
       <r>    -4.7932     0.0000   274.0000 </r>
       <r>    -4.6949    81.4067   282.0000 </r>
       <r>    -4.5966     0.0000   282.0000 </r>
       <r>    -4.4983     0.0000   282.0000 </r>
       <r>    -4.4001     0.0000   282.0000 </r>
       <r>    -4.3018     0.0000   282.0000 </r>
       <r>    -4.2035     0.0000   282.0000 </r>
       <r>    -4.1052     0.0000   282.0000 </r>
       <r>    -4.0070     0.0000   282.0000 </r>
       <r>    -3.9087     0.0000   282.0000 </r>
       <r>    -3.8104     0.0000   282.0000 </r>
       <r>    -3.7122     0.0000   282.0000 </r>
       <r>    -3.6139     0.0000   282.0000 </r>
       <r>    -3.5156     0.0000   282.0000 </r>
       <r>    -3.4173     0.0000   282.0000 </r>
       <r>    -3.3191     0.0000   282.0000 </r>
       <r>    -3.2208     0.0000   282.0000 </r>
       <r>    -3.1225     0.0000   282.0000 </r>
       <r>    -3.0243     0.0000   282.0000 </r>
       <r>    -2.9260     0.0000   282.0000 </r>
       <r>    -2.8277     0.0000   282.0000 </r>
       <r>    -2.7294     0.0000   282.0000 </r>
       <r>    -2.6312     0.0000   282.0000 </r>
       <r>    -2.5329     0.0000   282.0000 </r>
       <r>    -2.4346     0.0000   282.0000 </r>
       <r>    -2.3364     0.0000   282.0000 </r>
       <r>    -2.2381     0.0000   282.0000 </r>
       <r>    -2.1398     0.0000   282.0000 </r>
       <r>    -2.0415     0.0000   282.0000 </r>
       <r>    -1.9433     0.0000   282.0000 </r>
       <r>    -1.8450     0.0000   282.0000 </r>
       <r>    -1.7467     0.0000   282.0000 </r>
       <r>    -1.6484     0.0000   282.0000 </r>
       <r>    -1.5502     0.0000   282.0000 </r>
       <r>    -1.4519     0.0000   282.0000 </r>
       <r>    -1.3536     0.0000   282.0000 </r>
       <r>    -1.2554     0.0000   282.0000 </r>
       <r>    -1.1571     0.0000   282.0000 </r>
       <r>    -1.0588     0.0000   282.0000 </r>
       <r>    -0.9605     0.0000   282.0000 </r>
       <r>    -0.8623     0.0000   282.0000 </r>
       <r>    -0.7640     0.0000   282.0000 </r>
       <r>    -0.6657     0.1793   282.0176 </r>
       <r>    -0.5675    53.9241   288.0000 </r>
       <r>    -0.4692    48.3769   292.7541 </r>
       <r>    -0.3709     5.4223   294.0000 </r>
       <r>    -0.2726     6.7782   294.6661 </r>
       <r>    -0.1744    17.7297   296.6093 </r>
       <r>    -0.0761     7.0369   297.6916 </r>
       <r>     0.0222    37.3934   302.7422 </r>
       <r>     0.1204    59.0544   309.4371 </r>
       <r>     0.2187    17.0427   311.5750 </r>
       <r>     0.3170    37.8838   315.6565 </r>
       <r>     0.4153    23.8264   318.6764 </r>
       <r>     0.5135    18.1177   320.9140 </r>
       <r>     0.6118    30.0206   324.4171 </r>
       <r>     0.7101    51.9999   330.5104 </r>
       <r>     0.8084    38.4536   334.8458 </r>
       <r>     0.9066    39.8497   339.4165 </r>
       <r>     1.0049    40.4169   343.8054 </r>
       <r>     1.1032    55.1108   350.1164 </r>
       <r>     1.2014    41.2223   355.7184 </r>
       <r>     1.2997    51.5713   361.6686 </r>
       <r>     1.3980    48.8535   368.0012 </r>
       <r>     1.4963    70.3325   375.9792 </r>
       <r>     1.5945    72.1114   384.5879 </r>
       <r>     1.6928    73.8505   393.6580 </r>
       <r>     1.7911    49.6891   400.4839 </r>
       <r>     1.8893    75.3680   409.1408 </r>
       <r>     1.9876    50.5713   414.9033 </r>
       <r>     2.0859     4.0666   416.0000 </r>
       <r>     2.1842     0.0000   416.0000 </r>
       <r>     2.2824     0.0000   416.0000 </r>
       <r>     2.3807     0.0000   416.0000 </r>
       <r>     2.4790     0.0000   416.0000 </r>
       <r>     2.5772     0.0000   416.0000 </r>
       <r>     2.6755     0.0000   416.0000 </r>
       <r>     2.7738     0.0000   416.0000 </r>
       <r>     2.8721     0.0000   416.0000 </r>
       <r>     2.9703     0.0000   416.0000 </r>
       <r>     3.0686     0.0000   416.0000 </r>
       <r>     3.1669     0.0000   416.0000 </r>
       <r>     3.2652     0.0000   416.0000 </r>
       <r>     3.3634     0.0000   416.0000 </r>
      </set>
     </set>
    </array>
   </total>
  </dos>
 </calculation>
 <structure name="finalpos" >
  <crystal>
   <varray name="basis" >
    <v>      21.95277467       0.02396482       0.00000000 </v>
    <v>     -10.95560606      18.97939457       0.00000000 </v>
    <v>       0.00000000       0.00000000      20.00000000 </v>
   </varray>
   <i name="volume">   8338.25843148 </i>
   <varray name="rec_basis" >
    <v>       0.04552364       0.02627792       0.00000000 </v>
    <v>      -0.00005748       0.05265554       0.00000000 </v>
    <v>       0.00000000       0.00000000       0.05000000 </v>
   </varray>
  </crystal>
  <varray name="positions" >
   <v>       0.28929047       0.69698663       0.50107026 </v>
   <v>       0.29989816       0.59269363       0.50003947 </v>
   <v>       0.40392744       0.70744539       0.50118692 </v>
   <v>       0.19174841       0.58553692       0.50011893 </v>
   <v>       0.41120439       0.60633156       0.50022952 </v>
   <v>       0.39013460       0.80522409       0.50180060 </v>
   <v>       0.70635296       0.30100916       0.50031704 </v>
   <v>       0.69704201       0.40602169       0.50081036 </v>
   <v>       0.59230032       0.29178526       0.50039050 </v>
   <v>       0.80463823       0.41195621       0.50047030 </v>
   <v>       0.58617296       0.39347051       0.50025784 </v>
   <v>       0.60482657       0.19325706       0.50035616 </v>
   <v>       0.17275842       0.53292840       0.49750668 </v>
   <v>       0.46374427       0.63988272       0.49850797 </v>
   <v>       0.35658577       0.82427473       0.49920199 </v>
   <v>       0.82409573       0.46464825       0.50299624 </v>
   <v>       0.53356452       0.36021697       0.50227347 </v>
   <v>       0.63791845       0.17366647       0.50304470 </v>
   <v>       0.48259393       0.05844036       0.65978509 </v>
   <v>       0.56300150       0.05841755       0.65975800 </v>
   <v>       0.55884983       0.12999119       0.62432795 </v>
   <v>       0.45546227       0.86784941       0.61986546 </v>
   <v>       0.54046371       0.93597873       0.64331893 </v>
   <v>       0.46528644       0.94128607       0.66516808 </v>
   <v>       0.50222566       0.15653839       0.46583832 </v>
   <v>       0.50954348       0.15598972       0.55279906 </v>
   <v>       0.57395542       0.51542263       0.65833156 </v>
   <v>       0.49290993       0.43565493       0.65949079 </v>
   <v>       0.56737035       0.43799900       0.62334428 </v>
   <v>       0.40833833       0.54095142       0.61883123 </v>
   <v>       0.39281906       0.45640593       0.64282633 </v>
   <v>       0.47271720       0.53251907       0.66403956 </v>
   <v>       0.65142186       0.49616034       0.46513877 </v>
   <v>       0.64362522       0.48928232       0.55215731 </v>
   <v>       0.93979363       0.42558857       0.65943210 </v>
   <v>       0.93853522       0.50553730       0.65870591 </v>
   <v>       0.86776366       0.42918115       0.62358321 </v>
   <v>       0.12920121       0.58883696       0.61913049 </v>
   <v>       0.06093993       0.60572491       0.64222340 </v>
   <v>       0.05592674       0.52535221       0.66448934 </v>
   <v>       0.84161014       0.34638318       0.46505176 </v>
   <v>       0.84247417       0.35383545       0.55210951 </v>
   <v>       0.45301273       0.06320241       0.35937082 </v>
   <v>       0.53850193       0.13086464       0.38204190 </v>
   <v>       0.52746380       0.05698303       0.33668057 </v>
   <v>       0.43344675       0.86859866       0.37822833 </v>
   <v>       0.43093581       0.94084118       0.34228701 </v>
   <v>       0.51047755       0.93907378       0.34263912 </v>
   <v>       0.48535870       0.84360642       0.44903776 </v>
   <v>       0.49304225       0.84306738       0.53600105 </v>
   <v>       0.60575704       0.54378893       0.35777168 </v>
   <v>       0.58927898       0.45883074       0.38144817 </v>
   <v>       0.52552251       0.46828202       0.33613851 </v>
   <v>       0.43024062       0.56173714       0.37691532 </v>
   <v>       0.50538329       0.56526466       0.34115244 </v>
   <v>       0.42487497       0.48495881       0.34165633 </v>
   <v>       0.35428754       0.51055769       0.44815147 </v>
   <v>       0.34644796       0.50348342       0.53514159 </v>
   <v>       0.93366958       0.39078569       0.35844770 </v>
   <v>       0.86650604       0.40930024       0.38157400 </v>
   <v>       0.94021925       0.47182946       0.33609355 </v>
   <v>       0.12823534       0.56648817       0.37714607 </v>
   <v>       0.05640445       0.49157455       0.34126281 </v>
   <v>       0.05737120       0.57264339       0.34189098 </v>
   <v>       0.15313013       0.64287588       0.44828600 </v>
   <v>       0.15415240       0.65065544       0.53530769 </v>
   <v>       0.36053755       0.73403507       0.50135734 </v>
   <v>       0.26280933       0.62698775       0.50045338 </v>
   <v>       0.36975476       0.63606858       0.50053969 </v>
   <v>       0.63510399       0.26452224       0.50034653 </v>
   <v>       0.73351172       0.37109213       0.50052411 </v>
   <v>       0.62710070       0.36317468       0.50047668 </v>
   <v>       0.51328191       0.06992339       0.50352335 </v>
   <v>       0.51183676       0.03490651       0.56316964 </v>
   <v>       0.49393321       0.96354978       0.56081358 </v>
   <v>       0.52996428       0.07260385       0.62977523 </v>
   <v>       0.48849205       0.92501950       0.62522606 </v>
   <v>       0.52937298       0.14549841       0.50614947 </v>
   <v>       0.55356199       0.48443623       0.50270114 </v>
   <v>       0.51991776       0.48568891       0.56231989 </v>
   <v>       0.46616004       0.50306237       0.55990139 </v>
   <v>       0.53981261       0.46782606       0.62890016 </v>
   <v>       0.43315467       0.50853328       0.62432307 </v>
   <v>       0.61340698       0.46899445       0.50553702 </v>
   <v>       0.92780903       0.44403962       0.50287358 </v>
   <v>       0.96268512       0.47773353       0.56247198 </v>
   <v>       0.03377701       0.53136476       0.56002711 </v>
   <v>       0.92503780       0.45821848       0.62907307 </v>
   <v>       0.07211080       0.56466498       0.62440189 </v>
   <v>       0.85256576       0.38433428       0.50560792 </v>
   <v>       0.48070535       0.92898614       0.49860279 </v>
   <v>       0.48183831       0.96390521       0.43899778 </v>
   <v>       0.49981098       0.03527575       0.44132358 </v>
   <v>       0.50500945       0.07372092       0.37691286 </v>
   <v>       0.46327172       0.92594553       0.37251276 </v>
   <v>       0.46541226       0.85367895       0.49584152 </v>
   <v>       0.44453402       0.51580861       0.49762012 </v>
   <v>       0.47820765       0.51459969       0.43800724 </v>
   <v>       0.53196714       0.49722292       0.44042796 </v>
   <v>       0.56497257       0.49173462       0.37601418 </v>
   <v>       0.45839320       0.53250133       0.37140846 </v>
   <v>       0.38445369       0.53089888       0.49479186 </v>
   <v>       0.06817482       0.55270074       0.49776763 </v>
   <v>       0.03326664       0.51902013       0.43816055 </v>
   <v>       0.96214187       0.46549641       0.44058819 </v>
   <v>       0.92350127       0.43252193       0.37623242 </v>
   <v>       0.07096595       0.53870461       0.37157491 </v>
   <v>       0.14332992       0.61259360       0.49489552 </v>
  </varray>
 </structure>
</modeling>
