<?xml version="1.0" encoding="ISO-8859-1"?>
<modeling>
 <generator>
  <i name="program" type="string">vasp </i>
  <i name="version" type="string">5.4.4.18Apr17-6-g9f103f2a35  </i>
  <i name="subversion" type="string">(build Jun 07 2020 16:50:00) complex            parallel </i>
  <i name="platform" type="string">LinuxIFC </i>
  <i name="date" type="string">2023 02 18 </i>
  <i name="time" type="string">06:12:51 </i>
 </generator>
 <incar>
  <i type="string" name="SYSTEM">Simulation for cell shape cell volume r</i>
  <i type="int" name="ISTART">     1</i>
  <i type="string" name="PREC">high</i>
  <i type="string" name="ALGO">48</i>
  <i type="int" name="ICHARG">    11</i>
  <i type="int" name="NELM">   200</i>
  <i type="int" name="IBRION">    -1</i>
  <i name="EDIFF">      0.00001000</i>
  <i name="EDIFFG">     -0.01000000</i>
  <i type="int" name="NSW">     0</i>
  <i type="int" name="ISIF">     2</i>
  <i name="ENCUT">    500.00000000</i>
  <i name="POTIM">      0.30000000</i>
  <i type="string" name="LREAL">A</i>
  <i type="int" name="ISMEAR">     0</i>
  <i name="SIGMA">      0.01000000</i>
  <i type="int" name="NWRITE">     0</i>
  <i type="logical" name="LWAVE"> F  </i>
  <i type="logical" name="LCHARG"> F  </i>
  <v type="int" name="KPOINT_BSE">    -1     0     0     0</v>
  <i type="int" name="NELM">   200</i>
  <i type="string" name="GGA">PE</i>
 </incar>
 <structure name="primitive_cell" >
  <crystal>
   <varray name="basis" >
    <v>      22.31181396       0.02474511       0.00000000 </v>
    <v>     -11.13441859      19.31348939       0.00000000 </v>
    <v>       0.00000000       0.00000000      20.00000000 </v>
   </varray>
   <i name="volume">   8623.89009111 </i>
   <varray name="rec_basis" >
    <v>       0.04479067       0.02582226       0.00000000 </v>
    <v>      -0.00005739       0.05174420       0.00000000 </v>
    <v>       0.00000000       0.00000000       0.05000000 </v>
   </varray>
  </crystal>
  <varray name="positions" >
   <v>      -0.49783815      -0.04438958      -0.45635470 </v>
   <v>      -0.46269643       0.02323104      -0.44915186 </v>
   <v>       0.44668946      -0.07033745      -0.49667194 </v>
   <v>      -0.40495999       0.05363489      -0.41073893 </v>
   <v>       0.40774247      -0.14222601       0.49516123 </v>
   <v>       0.42654112      -0.02726195       0.47161461 </v>
   <v>      -0.48270037       0.06777743      -0.48114674 </v>
   <v>      -0.37786021      -0.02376758      -0.41964235 </v>
   <v>      -0.38393565       0.00776758      -0.38099533 </v>
   <v>      -0.42281734      -0.02674350      -0.34470388 </v>
   <v>       0.46202960       0.04151206       0.47970934 </v>
   <v>       0.49245902      -0.17211993      -0.49258718 </v>
   <v>       0.43126823      -0.18896185      -0.49988569 </v>
   <v>       0.35850602      -0.16071781       0.47909346 </v>
   <v>       0.38152393      -0.04814719       0.43856451 </v>
   <v>      -0.44055495       0.13877774      -0.47220593 </v>
   <v>      -0.33473617       0.04197066      -0.35623414 </v>
   <v>      -0.39458934       0.15235771      -0.44992771 </v>
   <v>       0.37568011      -0.26388734       0.49621638 </v>
   <v>       0.28318157      -0.25302680       0.49941558 </v>
   <v>      -0.45499902       0.19122718      -0.48619463 </v>
   <v>       0.30479225      -0.28740599       0.49632082 </v>
   <v>       0.45429564      -0.29077202       0.49817411 </v>
   <v>       0.48727558       0.18151500       0.49956903 </v>
   <v>       0.39840105      -0.31224994       0.49557483 </v>
   <v>      -0.31061728       0.23666991      -0.48501466 </v>
   <v>      -0.39302802       0.26293658      -0.48254449 </v>
   <v>      -0.32457652       0.27710529      -0.48240369 </v>
   <v>       0.25655514      -0.35839825       0.49549578 </v>
   <v>       0.35113922      -0.38316868       0.49469990 </v>
   <v>       0.47126008      -0.36578943       0.47530148 </v>
   <v>       0.16466135      -0.33345851      -0.49247012 </v>
   <v>       0.28016970      -0.40581592       0.49481003 </v>
   <v>      -0.40647932       0.31802074      -0.48352942 </v>
   <v>       0.18161902      -0.37765286       0.49894115 </v>
   <v>      -0.46071909       0.30416075      -0.48706488 </v>
   <v>      -0.18792454       0.30738228       0.49937005 </v>
   <v>      -0.26962520       0.34556190      -0.48270085 </v>
   <v>       0.44082185      -0.41510325       0.49133204 </v>
   <v>       0.37070989      -0.43876433       0.49712321 </v>
   <v>      -0.19787925       0.35534782      -0.48655162 </v>
   <v>       0.24585219      -0.46179029       0.49671270 </v>
   <v>      -0.35230483       0.38647081      -0.48378687 </v>
   <v>      -0.28387364       0.39987220      -0.48371583 </v>
   <v>       0.13503949      -0.44762188       0.49212811 </v>
   <v>      -0.44033055      -0.39062147       0.43259281 </v>
   <v>       0.47396463      -0.45395255       0.49957270 </v>
   <v>       0.32673018       0.49988396      -0.49590078 </v>
   <v>       0.15376401      -0.47803532       0.47540856 </v>
   <v>      -0.46364011      -0.43473103       0.46681910 </v>
   <v>      -0.46100159       0.38829980      -0.45118169 </v>
   <v>      -0.14563253       0.42230929      -0.47298438 </v>
   <v>       0.01673915      -0.35329904      -0.41734973 </v>
   <v>      -0.24353147       0.45409243      -0.48746961 </v>
   <v>       0.44541096       0.49159567      -0.45875971 </v>
   <v>       0.03731227      -0.45194860      -0.45787781 </v>
   <v>       0.06321147      -0.48083501      -0.49920323 </v>
   <v>      -0.15927528       0.45450357      -0.45023079 </v>
   <v>      -0.36234791       0.44827867      -0.48868265 </v>
   <v>       0.02040682      -0.39715762      -0.34407332 </v>
   <v>      -0.42911053       0.43381014      -0.47443801 </v>
   <v>      -0.01441804      -0.39187234      -0.37932612 </v>
   <v>      -0.04855048       0.42280017       0.47746711 </v>
   <v>       0.37113192       0.33100671      -0.35461941 </v>
   <v>      -0.07471868       0.45128725      -0.48246034 </v>
   <v>      -0.43014725      -0.47005547       0.47538456 </v>
   <v>       0.45144869       0.39963030      -0.41156260 </v>
   <v>      -0.31480607      -0.49414635       0.49602548 </v>
   <v>       0.47792461       0.45647709      -0.45123728 </v>
   <v>      -0.04849771      -0.37753164      -0.35313100 </v>
   <v>      -0.03015920      -0.48459676      -0.45000721 </v>
   <v>       0.02011832       0.45624452       0.46876419 </v>
   <v>       0.38543274       0.37955058      -0.38052040 </v>
   <v>       0.39063708       0.41945340      -0.34501733 </v>
   <v>      -0.45825099       0.47567894      -0.48412565 </v>
   <v>       0.04085866       0.43243775       0.43502161 </v>
   <v>      -0.06035018      -0.45791913      -0.41031581 </v>
   <v>       0.34689592       0.37245134      -0.41848050 </v>
  </varray>
 </structure>
 <varray name="primitive_index" >
  <v type="int" >        1 </v>
  <v type="int" >       61 </v>
  <v type="int" >       74 </v>
  <v type="int" >       19 </v>
  <v type="int" >        8 </v>
  <v type="int" >       73 </v>
  <v type="int" >       60 </v>
  <v type="int" >       30 </v>
  <v type="int" >       62 </v>
  <v type="int" >       29 </v>
  <v type="int" >        7 </v>
  <v type="int" >       13 </v>
  <v type="int" >       70 </v>
  <v type="int" >       41 </v>
  <v type="int" >       40 </v>
  <v type="int" >        2 </v>
  <v type="int" >       28 </v>
  <v type="int" >       31 </v>
  <v type="int" >       69 </v>
  <v type="int" >       22 </v>
  <v type="int" >       72 </v>
  <v type="int" >       49 </v>
  <v type="int" >       23 </v>
  <v type="int" >       16 </v>
  <v type="int" >       50 </v>
  <v type="int" >       25 </v>
  <v type="int" >       71 </v>
  <v type="int" >       56 </v>
  <v type="int" >       48 </v>
  <v type="int" >       46 </v>
  <v type="int" >       43 </v>
  <v type="int" >       15 </v>
  <v type="int" >       47 </v>
  <v type="int" >       57 </v>
  <v type="int" >       52 </v>
  <v type="int" >       26 </v>
  <v type="int" >       18 </v>
  <v type="int" >       55 </v>
  <v type="int" >       10 </v>
  <v type="int" >       51 </v>
  <v type="int" >       59 </v>
  <v type="int" >       24 </v>
  <v type="int" >       53 </v>
  <v type="int" >       54 </v>
  <v type="int" >       12 </v>
  <v type="int" >       42 </v>
  <v type="int" >       76 </v>
  <v type="int" >       14 </v>
  <v type="int" >       45 </v>
  <v type="int" >       75 </v>
  <v type="int" >       35 </v>
  <v type="int" >        6 </v>
  <v type="int" >       38 </v>
  <v type="int" >       27 </v>
  <v type="int" >        3 </v>
  <v type="int" >        5 </v>
  <v type="int" >       78 </v>
  <v type="int" >       39 </v>
  <v type="int" >       58 </v>
  <v type="int" >       37 </v>
  <v type="int" >        4 </v>
  <v type="int" >       68 </v>
  <v type="int" >       11 </v>
  <v type="int" >       32 </v>
  <v type="int" >       66 </v>
  <v type="int" >        9 </v>
  <v type="int" >       20 </v>
  <v type="int" >       17 </v>
  <v type="int" >       64 </v>
  <v type="int" >       36 </v>
  <v type="int" >       67 </v>
  <v type="int" >       77 </v>
  <v type="int" >       65 </v>
  <v type="int" >       33 </v>
  <v type="int" >       63 </v>
  <v type="int" >       44 </v>
  <v type="int" >       21 </v>
  <v type="int" >       34 </v>
 </varray>
 <kpoints>
  <generation param="listgenerated">
   <i name="divisions" type="int">      20 </i>
   <v>       0.00000000       0.00000000       0.00000000 </v>
   <v>       0.50000000       0.00000000       0.00000000 </v>
   <v>       0.33333333       0.33333333       0.00000000 </v>
   <v>       0.00000000       0.00000000       0.00000000 </v>
  </generation>
  <varray name="kpointlist" >
   <v>       0.00000000       0.00000000       0.00000000 </v>
   <v>       0.02631579       0.00000000       0.00000000 </v>
   <v>       0.05263158       0.00000000       0.00000000 </v>
   <v>       0.07894737       0.00000000       0.00000000 </v>
   <v>       0.10526316       0.00000000       0.00000000 </v>
   <v>       0.13157895       0.00000000       0.00000000 </v>
   <v>       0.15789474       0.00000000       0.00000000 </v>
   <v>       0.18421053       0.00000000       0.00000000 </v>
   <v>       0.21052632       0.00000000       0.00000000 </v>
   <v>       0.23684211       0.00000000       0.00000000 </v>
   <v>       0.26315789       0.00000000       0.00000000 </v>
   <v>       0.28947368       0.00000000       0.00000000 </v>
   <v>       0.31578947       0.00000000       0.00000000 </v>
   <v>       0.34210526       0.00000000       0.00000000 </v>
   <v>       0.36842105       0.00000000       0.00000000 </v>
   <v>       0.39473684       0.00000000       0.00000000 </v>
   <v>       0.42105263       0.00000000       0.00000000 </v>
   <v>       0.44736842       0.00000000       0.00000000 </v>
   <v>       0.47368421       0.00000000       0.00000000 </v>
   <v>       0.50000000       0.00000000       0.00000000 </v>
   <v>       0.50000000       0.00000000       0.00000000 </v>
   <v>       0.49122807       0.01754386       0.00000000 </v>
   <v>       0.48245614       0.03508772       0.00000000 </v>
   <v>       0.47368421       0.05263158       0.00000000 </v>
   <v>       0.46491228       0.07017544       0.00000000 </v>
   <v>       0.45614035       0.08771930       0.00000000 </v>
   <v>       0.44736842       0.10526316       0.00000000 </v>
   <v>       0.43859649       0.12280702       0.00000000 </v>
   <v>       0.42982456       0.14035088       0.00000000 </v>
   <v>       0.42105263       0.15789474       0.00000000 </v>
   <v>       0.41228070       0.17543860       0.00000000 </v>
   <v>       0.40350877       0.19298246       0.00000000 </v>
   <v>       0.39473684       0.21052632       0.00000000 </v>
   <v>       0.38596491       0.22807018       0.00000000 </v>
   <v>       0.37719298       0.24561404       0.00000000 </v>
   <v>       0.36842105       0.26315789       0.00000000 </v>
   <v>       0.35964912       0.28070175       0.00000000 </v>
   <v>       0.35087719       0.29824561       0.00000000 </v>
   <v>       0.34210526       0.31578947       0.00000000 </v>
   <v>       0.33333333       0.33333333       0.00000000 </v>
   <v>       0.33333333       0.33333333       0.00000000 </v>
   <v>       0.31578947       0.31578947       0.00000000 </v>
   <v>       0.29824561       0.29824561       0.00000000 </v>
   <v>       0.28070175       0.28070175       0.00000000 </v>
   <v>       0.26315789       0.26315789       0.00000000 </v>
   <v>       0.24561404       0.24561404       0.00000000 </v>
   <v>       0.22807018       0.22807018       0.00000000 </v>
   <v>       0.21052632       0.21052632       0.00000000 </v>
   <v>       0.19298246       0.19298246       0.00000000 </v>
   <v>       0.17543860       0.17543860       0.00000000 </v>
   <v>       0.15789474       0.15789474       0.00000000 </v>
   <v>       0.14035088       0.14035088       0.00000000 </v>
   <v>       0.12280702       0.12280702       0.00000000 </v>
   <v>       0.10526316       0.10526316       0.00000000 </v>
   <v>       0.08771930       0.08771930       0.00000000 </v>
   <v>       0.07017544       0.07017544       0.00000000 </v>
   <v>       0.05263158       0.05263158       0.00000000 </v>
   <v>       0.03508772       0.03508772       0.00000000 </v>
   <v>       0.01754386       0.01754386       0.00000000 </v>
   <v>       0.00000000       0.00000000       0.00000000 </v>
  </varray>
  <varray name="weights" >
   <v>       0.01666667 </v>
   <v>       0.01666667 </v>
   <v>       0.01666667 </v>
   <v>       0.01666667 </v>
   <v>       0.01666667 </v>
   <v>       0.01666667 </v>
   <v>       0.01666667 </v>
   <v>       0.01666667 </v>
   <v>       0.01666667 </v>
   <v>       0.01666667 </v>
   <v>       0.01666667 </v>
   <v>       0.01666667 </v>
   <v>       0.01666667 </v>
   <v>       0.01666667 </v>
   <v>       0.01666667 </v>
   <v>       0.01666667 </v>
   <v>       0.01666667 </v>
   <v>       0.01666667 </v>
   <v>       0.01666667 </v>
   <v>       0.01666667 </v>
   <v>       0.01666667 </v>
   <v>       0.01666667 </v>
   <v>       0.01666667 </v>
   <v>       0.01666667 </v>
   <v>       0.01666667 </v>
   <v>       0.01666667 </v>
   <v>       0.01666667 </v>
   <v>       0.01666667 </v>
   <v>       0.01666667 </v>
   <v>       0.01666667 </v>
   <v>       0.01666667 </v>
   <v>       0.01666667 </v>
   <v>       0.01666667 </v>
   <v>       0.01666667 </v>
   <v>       0.01666667 </v>
   <v>       0.01666667 </v>
   <v>       0.01666667 </v>
   <v>       0.01666667 </v>
   <v>       0.01666667 </v>
   <v>       0.01666667 </v>
   <v>       0.01666667 </v>
   <v>       0.01666667 </v>
   <v>       0.01666667 </v>
   <v>       0.01666667 </v>
   <v>       0.01666667 </v>
   <v>       0.01666667 </v>
   <v>       0.01666667 </v>
   <v>       0.01666667 </v>
   <v>       0.01666667 </v>
   <v>       0.01666667 </v>
   <v>       0.01666667 </v>
   <v>       0.01666667 </v>
   <v>       0.01666667 </v>
   <v>       0.01666667 </v>
   <v>       0.01666667 </v>
   <v>       0.01666667 </v>
   <v>       0.01666667 </v>
   <v>       0.01666667 </v>
   <v>       0.01666667 </v>
   <v>       0.01666667 </v>
  </varray>
 </kpoints>
 <parameters>
  <separator name="general" >
   <i type="string" name="SYSTEM">Simulation for cell shape cell volume r</i>
   <i type="logical" name="LCOMPAT"> F  </i>
  </separator>
  <separator name="electronic" >
   <i type="string" name="PREC">high</i>
   <i name="ENMAX">    500.00000000</i>
   <i name="ENAUG">    644.87300000</i>
   <i name="EDIFF">      0.00001000</i>
   <i type="int" name="IALGO">    38</i>
   <i type="int" name="IWAVPR">    10</i>
   <i type="int" name="NBANDS">   176</i>
   <i name="NELECT">    270.00000000</i>
   <i type="int" name="TURBO">     0</i>
   <i type="int" name="IRESTART">     0</i>
   <i type="int" name="NREBOOT">     0</i>
   <i type="int" name="NMIN">     0</i>
   <i name="EREF">      0.00000000</i>
   <separator name="electronic smearing" >
    <i type="int" name="ISMEAR">     0</i>
    <i name="SIGMA">      0.01000000</i>
    <i name="KSPACING">      0.50000000</i>
    <i type="logical" name="KGAMMA"> T  </i>
   </separator>
   <separator name="electronic projectors" >
    <i type="logical" name="LREAL"> T  </i>
    <v name="ROPT">     -0.00040000     -0.00040000     -0.00040000     -0.00040000</v>
    <i type="int" name="LMAXPAW">  -100</i>
    <i type="int" name="LMAXMIX">     2</i>
    <i type="logical" name="NLSPLINE"> F  </i>
   </separator>
   <separator name="electronic startup" >
    <i type="int" name="ISTART">     1</i>
    <i type="int" name="ICHARG">    11</i>
    <i type="int" name="INIWAV">     1</i>
   </separator>
   <separator name="electronic spin" >
    <i type="int" name="ISPIN">     1</i>
    <i type="logical" name="LNONCOLLINEAR"> F  </i>
    <v name="MAGMOM">      1.00000000      1.00000000      1.00000000      1.00000000      1.00000000      1.00000000      1.00000000      1.00000000      1.00000000      1.00000000      1.00000000      1.00000000      1.00000000      1.00000000      1.00000000      1.00000000      1.00000000      1.00000000      1.00000000      1.00000000
      1.00000000      1.00000000      1.00000000      1.00000000      1.00000000      1.00000000      1.00000000      1.00000000      1.00000000      1.00000000      1.00000000      1.00000000      1.00000000      1.00000000      1.00000000      1.00000000      1.00000000      1.00000000      1.00000000      1.00000000
      1.00000000      1.00000000      1.00000000      1.00000000      1.00000000      1.00000000      1.00000000      1.00000000      1.00000000      1.00000000      1.00000000      1.00000000      1.00000000      1.00000000      1.00000000      1.00000000      1.00000000      1.00000000      1.00000000      1.00000000
      1.00000000      1.00000000      1.00000000      1.00000000      1.00000000      1.00000000      1.00000000      1.00000000      1.00000000      1.00000000      1.00000000      1.00000000      1.00000000      1.00000000      1.00000000      1.00000000      1.00000000      1.00000000</v>
    <i name="NUPDOWN">     -1.00000000</i>
    <i type="logical" name="LSORBIT"> F  </i>
    <v name="SAXIS">      0.00000000      0.00000000      1.00000000</v>
    <i type="logical" name="LSPIRAL"> F  </i>
    <v name="QSPIRAL">      0.00000000      0.00000000      0.00000000</v>
    <i type="logical" name="LZEROZ"> F  </i>
   </separator>
   <separator name="electronic exchange-correlation" >
    <i type="logical" name="LASPH"> F  </i>
    <i type="logical" name="LMETAGGA"> F  </i>
   </separator>
   <separator name="electronic convergence" >
    <i type="int" name="NELM">   200</i>
    <i type="int" name="NELMDL">     0</i>
    <i type="int" name="NELMIN">     2</i>
    <i name="ENINI">    500.00000000</i>
    <separator name="electronic convergence detail" >
     <i type="logical" name="LDIAG"> T  </i>
     <i type="logical" name="LSUBROT"> F  </i>
     <i name="WEIMIN">      0.00000000</i>
     <i name="EBREAK">      0.00000001</i>
     <i name="DEPER">      0.30000000</i>
     <i type="int" name="NRMM">     4</i>
     <i name="TIME">      0.40000000</i>
    </separator>
   </separator>
   <separator name="electronic mixer" >
    <i name="AMIX">      0.40000000</i>
    <i name="BMIX">      1.00000000</i>
    <i name="AMIN">      0.10000000</i>
    <i name="AMIX_MAG">      1.60000000</i>
    <i name="BMIX_MAG">      1.00000000</i>
    <separator name="electronic mixer details" >
     <i type="int" name="IMIX">     4</i>
     <i type="logical" name="MIXFIRST"> F  </i>
     <i type="int" name="MAXMIX">   -45</i>
     <i name="WC">    100.00000000</i>
     <i type="int" name="INIMIX">     1</i>
     <i type="int" name="MIXPRE">     1</i>
     <i type="int" name="MREMOVE">     5</i>
    </separator>
   </separator>
   <separator name="electronic dipolcorrection" >
    <i type="logical" name="LDIPOL"> F  </i>
    <i type="logical" name="LMONO"> F  </i>
    <i type="int" name="IDIPOL">     0</i>
    <i name="EPSILON">      1.00000000</i>
    <v name="DIPOL">   -100.00000000   -100.00000000   -100.00000000</v>
    <i name="EFIELD">      0.00000000</i>
   </separator>
  </separator>
  <separator name="grids" >
   <i type="int" name="NGX">   168</i>
   <i type="int" name="NGY">   168</i>
   <i type="int" name="NGZ">   150</i>
   <i type="int" name="NGXF">   250</i>
   <i type="int" name="NGYF">   250</i>
   <i type="int" name="NGZF">   224</i>
   <i type="logical" name="ADDGRID"> F  </i>
  </separator>
  <separator name="ionic" >
   <i type="int" name="NSW">     0</i>
   <i type="int" name="IBRION">    -1</i>
   <i type="int" name="MDALGO">     0</i>
   <i type="int" name="ISIF">     2</i>
   <i name="PSTRESS">      0.00000000</i>
   <i name="EDIFFG">     -0.01000000</i>
   <i type="int" name="NFREE">     0</i>
   <i name="POTIM">      0.30000000</i>
   <i name="SMASS">     -3.00000000</i>
   <i name="SCALEE">      1.00000000</i>
  </separator>
  <separator name="ionic md" >
   <i name="TEBEG">      0.00010000</i>
   <i name="TEEND">      0.00010000</i>
   <i type="int" name="NBLOCK">     1</i>
   <i type="int" name="KBLOCK">     1</i>
   <i type="int" name="NPACO">   256</i>
   <i name="APACO">     16.00000000</i>
  </separator>
  <separator name="symmetry" >
   <i type="int" name="ISYM">     2</i>
   <i name="SYMPREC">      0.00001000</i>
  </separator>
  <separator name="dos" >
   <i type="int" name="LORBIT">     0</i>
   <v name="RWIGS">     -1.00000000     -1.00000000     -1.00000000     -1.00000000</v>
   <i type="int" name="NEDOS">   301</i>
   <i name="EMIN">     10.00000000</i>
   <i name="EMAX">    -10.00000000</i>
   <i name="EFERMI">      0.00000000</i>
  </separator>
  <separator name="writing" >
   <i type="int" name="NWRITE">     0</i>
   <i type="logical" name="LWAVE"> F  </i>
   <i type="logical" name="LDOWNSAMPLE"> F  </i>
   <i type="logical" name="LCHARG"> F  </i>
   <i type="logical" name="LPARD"> F  </i>
   <i type="logical" name="LVTOT"> F  </i>
   <i type="logical" name="LVHAR"> F  </i>
   <i type="logical" name="LELF"> F  </i>
   <i type="logical" name="LOPTICS"> F  </i>
   <v name="STM">      0.00000000      0.00000000      0.00000000      0.00000000      0.00000000      0.00000000      0.00000000</v>
  </separator>
  <separator name="performance" >
   <i type="int" name="NPAR">    16</i>
   <i type="int" name="NSIM">     4</i>
   <i type="int" name="NBLK">    -1</i>
   <i type="logical" name="LPLANE"> T  </i>
   <i type="logical" name="LSCALAPACK"> T  </i>
   <i type="logical" name="LSCAAWARE"> F  </i>
   <i type="logical" name="LSCALU"> F  </i>
   <i type="logical" name="LASYNC"> F  </i>
   <i type="logical" name="LORBITALREAL"> F  </i>
  </separator>
  <separator name="miscellaneous" >
   <i type="int" name="IDIOT">     3</i>
   <i type="int" name="ISPECIAL">     0</i>
   <i type="logical" name="LMUSIC"> F  </i>
   <v name="POMASS">     14.00100000     16.00000000      1.00000000     12.01100000</v>
   <v name="DARWINR">      0.00000000      0.00000000      0.00000000      0.00000000</v>
   <v name="DARWINV">      1.00000000      1.00000000      1.00000000      1.00000000</v>
   <i type="logical" name="LCORR"> T  </i>
  </separator>
  <i type="logical" name="GGA_COMPAT"> T  </i>
  <i type="logical" name="LBERRY"> F  </i>
  <i type="int" name="ICORELEVEL">     0</i>
  <i type="logical" name="LDAU"> F  </i>
  <i type="int" name="I_CONSTRAINED_M">     0</i>
  <separator name="electronic exchange-correlation" >
   <i type="string" name="GGA">PE</i>
   <i type="int" name="VOSKOWN">     0</i>
   <i type="logical" name="LHFCALC"> F  </i>
   <i type="string" name="PRECFOCK"></i>
   <i type="logical" name="LSYMGRAD"> F  </i>
   <i type="logical" name="LHFONE"> F  </i>
   <i type="logical" name="LRHFCALC"> F  </i>
   <i type="logical" name="LTHOMAS"> F  </i>
   <i type="logical" name="LMODELHF"> F  </i>
   <i name="ENCUT4O">     -1.00000000</i>
   <i type="int" name="EXXOEP">     0</i>
   <i type="int" name="FOURORBIT">     0</i>
   <i name="AEXX">      0.00000000</i>
   <i name="HFALPHA">      0.00000000</i>
   <i name="MCALPHA">      0.00000000</i>
   <i name="ALDAX">      1.00000000</i>
   <i name="AGGAX">      1.00000000</i>
   <i name="ALDAC">      1.00000000</i>
   <i name="AGGAC">      1.00000000</i>
   <i type="int" name="NKREDX">     1</i>
   <i type="int" name="NKREDY">     1</i>
   <i type="int" name="NKREDZ">     1</i>
   <i type="logical" name="SHIFTRED"> F  </i>
   <i type="logical" name="ODDONLY"> F  </i>
   <i type="logical" name="EVENONLY"> F  </i>
   <i type="int" name="LMAXFOCK">     0</i>
   <i type="int" name="NMAXFOCKAE">     0</i>
   <i type="logical" name="LFOCKAEDFT"> F  </i>
   <i name="HFSCREEN">      0.00000000</i>
   <i name="HFSCREENC">      0.00000000</i>
   <i type="int" name="NBANDSGWLOW">     0</i>
  </separator>
  <separator name="vdW DFT" >
   <i type="logical" name="LUSE_VDW"> F  </i>
   <i name="Zab_VDW">     -0.84910000</i>
   <i name="PARAM1">      0.12340000</i>
   <i name="PARAM2">      1.00000000</i>
   <i name="PARAM3">      0.00000000</i>
  </separator>
  <separator name="model GW" >
   <i type="int" name="MODEL_GW">     0</i>
   <i name="MODEL_EPS0">     66.33761609</i>
   <i name="MODEL_ALPHA">      1.00000000</i>
  </separator>
  <separator name="linear response parameters" >
   <i type="logical" name="LEPSILON"> F  </i>
   <i type="logical" name="LRPA"> F  </i>
   <i type="logical" name="LNABLA"> F  </i>
   <i type="logical" name="LVEL"> F  </i>
   <i type="int" name="KINTER">     0</i>
   <i name="CSHIFT">      0.10000000</i>
   <i name="OMEGAMAX">     -1.00000000</i>
   <i name="DEG_THRESHOLD">      0.00200000</i>
   <i name="RTIME">     -0.10000000</i>
   <i name="WPLASMAI">      0.00000000</i>
   <v name="DFIELD">      0.00000000      0.00000000      0.00000000</v>
   <v name="WPLASMA">      0.00000000      0.00000000      0.00000000      0.00000000      0.00000000      0.00000000      0.00000000      0.00000000      0.00000000</v>
  </separator>
  <separator name="orbital magnetization" >
   <i type="logical" name="NUCIND"> F  </i>
   <v name="MAGPOS">      0.00000000      0.00000000      0.00000000</v>
   <i type="logical" name="LNICSALL"> T  </i>
   <i type="logical" name="ORBITALMAG"> F  </i>
   <i type="logical" name="LMAGBLOCH"> F  </i>
   <i type="logical" name="LCHIMAG"> F  </i>
   <i type="logical" name="LGAUGE"> T  </i>
   <i type="int" name="MAGATOM">     0</i>
   <v name="MAGDIPOL">      0.00000000      0.00000000      0.00000000</v>
   <v name="AVECCONST">      0.00000000      0.00000000      0.00000000</v>
  </separator>
  <separator name="response functions" >
   <i type="logical" name="LADDER"> F  </i>
   <i type="logical" name="LRPAFORCE"> F  </i>
   <i type="logical" name="LFXC"> F  </i>
   <i type="logical" name="LHARTREE"> T  </i>
   <i type="int" name="IBSE">     0</i>
   <v type="int" name="KPOINT">    -1     0     0     0</v>
   <i type="logical" name="LTCTE"> F  </i>
   <i type="logical" name="LTETE"> F  </i>
   <i type="logical" name="LTRIPLET"> F  </i>
   <i type="logical" name="LFXCEPS"> F  </i>
   <i type="logical" name="LFXHEG"> F  </i>
   <i type="int" name="NATURALO">     2</i>
   <i type="logical" name="L2ORDER"> F  </i>
   <i type="logical" name="LMP2LT"> F  </i>
   <i type="logical" name="LUSEW"> F  </i>
   <i name="ENCUTGW">     -2.00000000</i>
   <i name="ENCUTGWSOFT">     -2.00000000</i>
   <i name="ENCUTLF">     -1.00000000</i>
   <i type="int" name="LMAXMP2">    -1</i>
   <i name="SCISSOR">      0.00000000</i>
   <i type="int" name="NOMEGA">     0</i>
   <i type="int" name="NOMEGAR">     0</i>
   <i type="int" name="NBANDSGW">    -1</i>
   <i type="int" name="NBANDSO">    -1</i>
   <i type="int" name="NBANDSV">    -1</i>
   <i type="int" name="NELM">   200</i>
   <i type="int" name="NELMHF">     1</i>
   <i type="int" name="DIM">     3</i>
   <i type="int" name="ANTIRES">     0</i>
   <i name="OMEGAMAX">    -30.00000000</i>
   <i name="OMEGAMIN">    -30.00000000</i>
   <i name="OMEGATL">   -200.00000000</i>
   <i type="int" name="OMEGAGRID">   140</i>
   <i name="CSHIFT">     -0.10000000</i>
   <i type="logical" name="SELFENERGY"> F  </i>
   <i type="logical" name="LSPECTRAL"> F  </i>
   <i type="logical" name="LSPECTRALGW"> F  </i>
   <i type="logical" name="LSINGLES"> F  </i>
   <i type="logical" name="LFERMIGW"> F  </i>
   <i type="logical" name="ODDONLYGW"> F  </i>
   <i type="logical" name="EVENONLYGW"> F  </i>
   <i type="int" name="NKREDLFX">     1</i>
   <i type="int" name="NKREDLFY">     1</i>
   <i type="int" name="NKREDLFZ">     1</i>
   <i type="int" name="MAXMEM">  2800</i>
   <i type="int" name="TELESCOPE">     0</i>
   <i type="int" name="TAUPAR">     1</i>
   <i type="int" name="OMEGAPAR">    -1</i>
   <i name="LAMBDA">      1.00000000</i>
  </separator>
  <separator name="External order field" >
   <i name="OFIELD_KAPPA">      0.00000000</i>
   <v name="OFIELD_K">      0.00000000      0.00000000      0.00000000</v>
   <i name="OFIELD_Q6_NEAR">      0.00000000</i>
   <i name="OFIELD_Q6_FAR">      0.00000000</i>
   <i name="OFIELD_A">      0.00000000</i>
  </separator>
  <separator name="solvation model" >
   <i type="logical" name="LSOL"> F  </i>
  </separator>
 </parameters>
 <atominfo>
  <atoms>      78 </atoms>
  <types>       4 </types>
  <array name="atoms" >
   <dimension dim="1">ion</dimension>
   <field type="string">element</field>
   <field type="int">atomtype</field>
   <set>
    <rc><c>N </c><c>   1</c></rc>
    <rc><c>N </c><c>   1</c></rc>
    <rc><c>N </c><c>   1</c></rc>
    <rc><c>N </c><c>   1</c></rc>
    <rc><c>N </c><c>   1</c></rc>
    <rc><c>N </c><c>   1</c></rc>
    <rc><c>N </c><c>   1</c></rc>
    <rc><c>N </c><c>   1</c></rc>
    <rc><c>N </c><c>   1</c></rc>
    <rc><c>N </c><c>   1</c></rc>
    <rc><c>N </c><c>   1</c></rc>
    <rc><c>N </c><c>   1</c></rc>
    <rc><c>O </c><c>   2</c></rc>
    <rc><c>O </c><c>   2</c></rc>
    <rc><c>O </c><c>   2</c></rc>
    <rc><c>O </c><c>   2</c></rc>
    <rc><c>O </c><c>   2</c></rc>
    <rc><c>O </c><c>   2</c></rc>
    <rc><c>O </c><c>   2</c></rc>
    <rc><c>O </c><c>   2</c></rc>
    <rc><c>O </c><c>   2</c></rc>
    <rc><c>H </c><c>   3</c></rc>
    <rc><c>H </c><c>   3</c></rc>
    <rc><c>H </c><c>   3</c></rc>
    <rc><c>H </c><c>   3</c></rc>
    <rc><c>H </c><c>   3</c></rc>
    <rc><c>H </c><c>   3</c></rc>
    <rc><c>H </c><c>   3</c></rc>
    <rc><c>H </c><c>   3</c></rc>
    <rc><c>H </c><c>   3</c></rc>
    <rc><c>H </c><c>   3</c></rc>
    <rc><c>H </c><c>   3</c></rc>
    <rc><c>H </c><c>   3</c></rc>
    <rc><c>H </c><c>   3</c></rc>
    <rc><c>H </c><c>   3</c></rc>
    <rc><c>H </c><c>   3</c></rc>
    <rc><c>H </c><c>   3</c></rc>
    <rc><c>H </c><c>   3</c></rc>
    <rc><c>H </c><c>   3</c></rc>
    <rc><c>H </c><c>   3</c></rc>
    <rc><c>H </c><c>   3</c></rc>
    <rc><c>H </c><c>   3</c></rc>
    <rc><c>H </c><c>   3</c></rc>
    <rc><c>H </c><c>   3</c></rc>
    <rc><c>H </c><c>   3</c></rc>
    <rc><c>C </c><c>   4</c></rc>
    <rc><c>C </c><c>   4</c></rc>
    <rc><c>C </c><c>   4</c></rc>
    <rc><c>C </c><c>   4</c></rc>
    <rc><c>C </c><c>   4</c></rc>
    <rc><c>C </c><c>   4</c></rc>
    <rc><c>C </c><c>   4</c></rc>
    <rc><c>C </c><c>   4</c></rc>
    <rc><c>C </c><c>   4</c></rc>
    <rc><c>C </c><c>   4</c></rc>
    <rc><c>C </c><c>   4</c></rc>
    <rc><c>C </c><c>   4</c></rc>
    <rc><c>C </c><c>   4</c></rc>
    <rc><c>C </c><c>   4</c></rc>
    <rc><c>C </c><c>   4</c></rc>
    <rc><c>C </c><c>   4</c></rc>
    <rc><c>C </c><c>   4</c></rc>
    <rc><c>C </c><c>   4</c></rc>
    <rc><c>C </c><c>   4</c></rc>
    <rc><c>C </c><c>   4</c></rc>
    <rc><c>C </c><c>   4</c></rc>
    <rc><c>C </c><c>   4</c></rc>
    <rc><c>C </c><c>   4</c></rc>
    <rc><c>C </c><c>   4</c></rc>
    <rc><c>C </c><c>   4</c></rc>
    <rc><c>C </c><c>   4</c></rc>
    <rc><c>C </c><c>   4</c></rc>
    <rc><c>C </c><c>   4</c></rc>
    <rc><c>C </c><c>   4</c></rc>
    <rc><c>C </c><c>   4</c></rc>
    <rc><c>C </c><c>   4</c></rc>
    <rc><c>C </c><c>   4</c></rc>
    <rc><c>C </c><c>   4</c></rc>
   </set>
  </array>
  <array name="atomtypes" >
   <dimension dim="1">type</dimension>
   <field type="int">atomspertype</field>
   <field type="string">element</field>
   <field>mass</field>
   <field>valence</field>
   <field type="string">pseudopotential</field>
   <set>
    <rc><c>  12</c><c>N </c><c>     14.00100000</c><c>      5.00000000</c><c>  PAW_PBE N 08Apr2002                   </c></rc>
    <rc><c>   9</c><c>O </c><c>     16.00000000</c><c>      6.00000000</c><c>  PAW_PBE O 08Apr2002                   </c></rc>
    <rc><c>  24</c><c>H </c><c>      1.00000000</c><c>      1.00000000</c><c>  PAW_PBE H 15Jun2001                   </c></rc>
    <rc><c>  33</c><c>C </c><c>     12.01100000</c><c>      4.00000000</c><c>  PAW_PBE C 08Apr2002                   </c></rc>
   </set>
  </array>
 </atominfo>
 <structure name="initialpos" >
  <crystal>
   <varray name="basis" >
    <v>      22.31181396       0.02474511       0.00000000 </v>
    <v>     -11.13441859      19.31348939       0.00000000 </v>
    <v>       0.00000000       0.00000000      20.00000000 </v>
   </varray>
   <i name="volume">   8623.89009111 </i>
   <varray name="rec_basis" >
    <v>       0.04479067       0.02582226       0.00000000 </v>
    <v>      -0.00005739       0.05174420       0.00000000 </v>
    <v>       0.00000000       0.00000000       0.05000000 </v>
   </varray>
  </crystal>
  <varray name="positions" >
   <v>       0.50216185       0.95561042       0.54364530 </v>
   <v>       0.55944505       0.13877774       0.52779407 </v>
   <v>       0.44541096       0.49159567       0.54124029 </v>
   <v>       0.57088947       0.43381014       0.52556199 </v>
   <v>       0.03731227       0.54805140       0.54212219 </v>
   <v>       0.85436747       0.42230929       0.52701562 </v>
   <v>       0.46202960       0.04151206       0.47970934 </v>
   <v>       0.40774247       0.85777399       0.49516123 </v>
   <v>       0.56985275       0.52994453       0.47538456 </v>
   <v>       0.44082185       0.58489675       0.49133204 </v>
   <v>       0.95144952       0.42280017       0.47746711 </v>
   <v>       0.13503949       0.55237812       0.49212811 </v>
   <v>       0.49245902       0.82788007       0.50741282 </v>
   <v>       0.32673018       0.49988396       0.50409922 </v>
   <v>       0.16466135       0.66654149       0.50752988 </v>
   <v>       0.48727558       0.18151500       0.49956903 </v>
   <v>       0.68519393       0.50585365       0.49602548 </v>
   <v>       0.81207546       0.30738228       0.49937005 </v>
   <v>       0.59504001       0.05363489       0.58926107 </v>
   <v>       0.45144869       0.39963030       0.58843740 </v>
   <v>       0.93964982       0.54208087       0.58968419 </v>
   <v>       0.28318157       0.74697320       0.49941558 </v>
   <v>       0.45429564       0.70922798       0.49817411 </v>
   <v>       0.24585219       0.53820971       0.49671270 </v>
   <v>       0.68938272       0.23666991       0.51498534 </v>
   <v>       0.53928091       0.30416075       0.51293512 </v>
   <v>       0.75646853       0.45409243       0.51253039 </v>
   <v>       0.66526383       0.04197066       0.64376586 </v>
   <v>       0.57718266       0.97325650       0.65529612 </v>
   <v>       0.62213979       0.97623242       0.58035765 </v>
   <v>       0.60541066       0.15235771       0.55007229 </v>
   <v>       0.37113192       0.33100671       0.64538059 </v>
   <v>       0.39063708       0.41945340       0.65498267 </v>
   <v>       0.34689592       0.37245134       0.58151950 </v>
   <v>       0.53899841       0.38829980       0.54881831 </v>
   <v>       0.95150229       0.62246836       0.64686900 </v>
   <v>       0.02040682       0.60284238       0.65592668 </v>
   <v>       0.01673915       0.64670096       0.58265027 </v>
   <v>       0.84072472       0.45450357       0.54976921 </v>
   <v>       0.38152393       0.95185281       0.43856451 </v>
   <v>       0.35850602       0.83928219       0.47909346 </v>
   <v>       0.55966945       0.60937853       0.43259281 </v>
   <v>       0.47126008       0.63421057       0.47530148 </v>
   <v>       0.04085866       0.43243775       0.43502161 </v>
   <v>       0.15376401       0.52196468       0.47540856 </v>
   <v>       0.35113922       0.61683132       0.49469990 </v>
   <v>       0.28016970       0.59418408       0.49481003 </v>
   <v>       0.25655514       0.64160175       0.49549578 </v>
   <v>       0.30479225       0.71259401       0.49632082 </v>
   <v>       0.39840105       0.68775006       0.49557483 </v>
   <v>       0.37070989       0.56123567       0.49712321 </v>
   <v>       0.18161902       0.62234714       0.49894115 </v>
   <v>       0.64769517       0.38647081       0.51621313 </v>
   <v>       0.71612636       0.39987220       0.51628417 </v>
   <v>       0.73037480       0.34556190       0.51729915 </v>
   <v>       0.67542348       0.27710529       0.51759631 </v>
   <v>       0.59352068       0.31802074       0.51647058 </v>
   <v>       0.63765209       0.44827867       0.51131735 </v>
   <v>       0.80212075       0.35534782       0.51344838 </v>
   <v>       0.51729963       0.06777743       0.51885326 </v>
   <v>       0.53730357       0.02323104       0.55084814 </v>
   <v>       0.61606435       0.00776758       0.61900467 </v>
   <v>       0.54174901       0.47567894       0.51587435 </v>
   <v>       0.47792461       0.45647709       0.54876272 </v>
   <v>       0.38543274       0.37955058       0.61947960 </v>
   <v>       0.92528132       0.45128725       0.51753966 </v>
   <v>       0.96984080       0.51540324       0.54999279 </v>
   <v>       0.98558196       0.60812766       0.62067388 </v>
   <v>       0.37568011       0.73611266       0.49621638 </v>
   <v>       0.43126823       0.81103815       0.50011431 </v>
   <v>       0.60697198       0.26293658       0.51745551 </v>
   <v>       0.54500098       0.19122718       0.51380537 </v>
   <v>       0.42654112       0.97273805       0.47161461 </v>
   <v>       0.44668946       0.92966255       0.50332806 </v>
   <v>       0.53635989       0.56526897       0.46681910 </v>
   <v>       0.47396463       0.54604745       0.49957270 </v>
   <v>       0.02011832       0.45624452       0.46876419 </v>
   <v>       0.06321147       0.51916499       0.50079677 </v>
  </varray>
 </structure>
 <calculation>
  <scstep>
   <time name="dav">  241.63  244.16</time>
   <time name="total">  241.77  244.30</time>
   <energy>
    <i name="alphaZ">     37.67025340 </i>
    <i name="ewald">  30560.92626824 </i>
    <i name="hartreedc"> -40701.80879667 </i>
    <i name="XCdc">   1021.41343090 </i>
    <i name="pawpsdc">  25153.59635629 </i>
    <i name="pawaedc"> -25211.84546704 </i>
    <i name="eentropy">     -0.00000000 </i>
    <i name="bandstr">  -3625.05360300 </i>
    <i name="atom">  12221.19833713 </i>
    <i name="e_fr_energy">   -543.90322076 </i>
    <i name="e_wo_entrp">   -543.90322076 </i>
    <i name="e_0_energy">   -543.90322076 </i>
   </energy>
  </scstep>
  <scstep>
   <time name="dav">  275.68  278.55</time>
   <time name="total">  275.68  278.56</time>
   <energy>
    <i name="e_fr_energy">   -544.61360661 </i>
    <i name="e_wo_entrp">   -544.61360661 </i>
    <i name="e_0_energy">   -544.61360661 </i>
   </energy>
  </scstep>
  <scstep>
   <time name="dav">  301.07  304.26</time>
   <time name="total">  301.07  304.26</time>
   <energy>
    <i name="e_fr_energy">   -544.63221456 </i>
    <i name="e_wo_entrp">   -544.63221456 </i>
    <i name="e_0_energy">   -544.63221456 </i>
   </energy>
  </scstep>
  <scstep>
   <time name="dav">  271.95  274.86</time>
   <time name="total">  271.95  274.87</time>
   <energy>
    <i name="e_fr_energy">   -544.63258357 </i>
    <i name="e_wo_entrp">   -544.63258357 </i>
    <i name="e_0_energy">   -544.63258357 </i>
   </energy>
  </scstep>
  <scstep>
   <time name="dav">  257.05  259.74</time>
   <time name="total">  257.05  259.74</time>
   <energy>
    <i name="e_fr_energy">   -544.63260126 </i>
    <i name="e_wo_entrp">   -544.63260126 </i>
    <i name="e_0_energy">   -544.63260126 </i>
   </energy>
  </scstep>
  <scstep>
   <time name="dav">  209.04  211.25</time>
   <time name="total">  209.04  211.26</time>
   <energy>
    <i name="alphaZ">     37.67025340 </i>
    <i name="ewald">  30560.92626824 </i>
    <i name="hartreedc"> -40701.80879667 </i>
    <i name="XCdc">   1021.41343090 </i>
    <i name="pawpsdc">  25153.59635629 </i>
    <i name="pawaedc"> -25211.84546704 </i>
    <i name="eentropy">     -0.00000000 </i>
    <i name="bandstr">  -3625.78298397 </i>
    <i name="atom">  12221.19833713 </i>
    <i name="e_fr_energy">   -544.63260172 </i>
    <i name="e_wo_entrp">   -544.63260172 </i>
    <i name="e_0_energy">   -544.63260172 </i>
   </energy>
  </scstep>
  <structure>
   <crystal>
    <varray name="basis" >
     <v>      22.31181396       0.02474511       0.00000000 </v>
     <v>     -11.13441859      19.31348939       0.00000000 </v>
     <v>       0.00000000       0.00000000      20.00000000 </v>
    </varray>
    <i name="volume">   8623.89009111 </i>
    <varray name="rec_basis" >
     <v>       0.04479067       0.02582226       0.00000000 </v>
     <v>      -0.00005739       0.05174420       0.00000000 </v>
     <v>       0.00000000       0.00000000       0.05000000 </v>
    </varray>
   </crystal>
   <varray name="positions" >
    <v>       0.50216185       0.95561042       0.54364530 </v>
    <v>       0.55944505       0.13877774       0.52779407 </v>
    <v>       0.44541096       0.49159567       0.54124029 </v>
    <v>       0.57088947       0.43381014       0.52556199 </v>
    <v>       0.03731227       0.54805140       0.54212219 </v>
    <v>       0.85436747       0.42230929       0.52701562 </v>
    <v>       0.46202960       0.04151206       0.47970934 </v>
    <v>       0.40774247       0.85777399       0.49516123 </v>
    <v>       0.56985275       0.52994453       0.47538456 </v>
    <v>       0.44082185       0.58489675       0.49133204 </v>
    <v>       0.95144952       0.42280017       0.47746711 </v>
    <v>       0.13503949       0.55237812       0.49212811 </v>
    <v>       0.49245902       0.82788007       0.50741282 </v>
    <v>       0.32673018       0.49988396       0.50409922 </v>
    <v>       0.16466135       0.66654149       0.50752988 </v>
    <v>       0.48727558       0.18151500       0.49956903 </v>
    <v>       0.68519393       0.50585365       0.49602548 </v>
    <v>       0.81207546       0.30738228       0.49937005 </v>
    <v>       0.59504001       0.05363489       0.58926107 </v>
    <v>       0.45144869       0.39963030       0.58843740 </v>
    <v>       0.93964982       0.54208087       0.58968419 </v>
    <v>       0.28318157       0.74697320       0.49941558 </v>
    <v>       0.45429564       0.70922798       0.49817411 </v>
    <v>       0.24585219       0.53820971       0.49671270 </v>
    <v>       0.68938272       0.23666991       0.51498534 </v>
    <v>       0.53928091       0.30416075       0.51293512 </v>
    <v>       0.75646853       0.45409243       0.51253039 </v>
    <v>       0.66526383       0.04197066       0.64376586 </v>
    <v>       0.57718266       0.97325650       0.65529612 </v>
    <v>       0.62213979       0.97623242       0.58035765 </v>
    <v>       0.60541066       0.15235771       0.55007229 </v>
    <v>       0.37113192       0.33100671       0.64538059 </v>
    <v>       0.39063708       0.41945340       0.65498267 </v>
    <v>       0.34689592       0.37245134       0.58151950 </v>
    <v>       0.53899841       0.38829980       0.54881831 </v>
    <v>       0.95150229       0.62246836       0.64686900 </v>
    <v>       0.02040682       0.60284238       0.65592668 </v>
    <v>       0.01673915       0.64670096       0.58265027 </v>
    <v>       0.84072472       0.45450357       0.54976921 </v>
    <v>       0.38152393       0.95185281       0.43856451 </v>
    <v>       0.35850602       0.83928219       0.47909346 </v>
    <v>       0.55966945       0.60937853       0.43259281 </v>
    <v>       0.47126008       0.63421057       0.47530148 </v>
    <v>       0.04085866       0.43243775       0.43502161 </v>
    <v>       0.15376401       0.52196468       0.47540856 </v>
    <v>       0.35113922       0.61683132       0.49469990 </v>
    <v>       0.28016970       0.59418408       0.49481003 </v>
    <v>       0.25655514       0.64160175       0.49549578 </v>
    <v>       0.30479225       0.71259401       0.49632082 </v>
    <v>       0.39840105       0.68775006       0.49557483 </v>
    <v>       0.37070989       0.56123567       0.49712321 </v>
    <v>       0.18161902       0.62234714       0.49894115 </v>
    <v>       0.64769517       0.38647081       0.51621313 </v>
    <v>       0.71612636       0.39987220       0.51628417 </v>
    <v>       0.73037480       0.34556190       0.51729915 </v>
    <v>       0.67542348       0.27710529       0.51759631 </v>
    <v>       0.59352068       0.31802074       0.51647058 </v>
    <v>       0.63765209       0.44827867       0.51131735 </v>
    <v>       0.80212075       0.35534782       0.51344838 </v>
    <v>       0.51729963       0.06777743       0.51885326 </v>
    <v>       0.53730357       0.02323104       0.55084814 </v>
    <v>       0.61606435       0.00776758       0.61900467 </v>
    <v>       0.54174901       0.47567894       0.51587435 </v>
    <v>       0.47792461       0.45647709       0.54876272 </v>
    <v>       0.38543274       0.37955058       0.61947960 </v>
    <v>       0.92528132       0.45128725       0.51753966 </v>
    <v>       0.96984080       0.51540324       0.54999279 </v>
    <v>       0.98558196       0.60812766       0.62067388 </v>
    <v>       0.37568011       0.73611266       0.49621638 </v>
    <v>       0.43126823       0.81103815       0.50011431 </v>
    <v>       0.60697198       0.26293658       0.51745551 </v>
    <v>       0.54500098       0.19122718       0.51380537 </v>
    <v>       0.42654112       0.97273805       0.47161461 </v>
    <v>       0.44668946       0.92966255       0.50332806 </v>
    <v>       0.53635989       0.56526897       0.46681910 </v>
    <v>       0.47396463       0.54604745       0.49957270 </v>
    <v>       0.02011832       0.45624452       0.46876419 </v>
    <v>       0.06321147       0.51916499       0.50079677 </v>
   </varray>
  </structure>
  <varray name="forces" >
   <v>       0.00190215       0.00290381      -0.00230679 </v>
   <v>      -0.00106611      -0.00169066      -0.00080596 </v>
   <v>       0.00164134      -0.00109679       0.00187418 </v>
   <v>      -0.00495297      -0.00047577      -0.00438165 </v>
   <v>      -0.00235053      -0.00254760      -0.00058963 </v>
   <v>       0.00040455      -0.00134859       0.00707224 </v>
   <v>       0.00105114      -0.00028249       0.00342677 </v>
   <v>       0.00232316       0.00247175       0.00174793 </v>
   <v>      -0.00448495      -0.00076272      -0.00340676 </v>
   <v>      -0.00162531       0.00346738      -0.00136156 </v>
   <v>       0.00043748       0.00099041       0.00045734 </v>
   <v>      -0.00279185       0.00213464       0.00994335 </v>
   <v>      -0.00279705      -0.00089303       0.00070480 </v>
   <v>      -0.00277252      -0.00533824       0.00072679 </v>
   <v>      -0.00130102      -0.00231200      -0.00022125 </v>
   <v>      -0.00240037      -0.00004290      -0.00284424 </v>
   <v>       0.00005199      -0.00183884       0.00078481 </v>
   <v>      -0.00606986       0.00600491      -0.00149526 </v>
   <v>      -0.00048492      -0.00013656      -0.00281115 </v>
   <v>      -0.00161787       0.00078166      -0.00560093 </v>
   <v>       0.00073893       0.00228900       0.00217019 </v>
   <v>       0.00028290      -0.00072991       0.00171083 </v>
   <v>       0.00121485       0.00135414      -0.00010982 </v>
   <v>      -0.00243330      -0.00016288       0.00252838 </v>
   <v>       0.00098248       0.00035147      -0.00098900 </v>
   <v>       0.00119842       0.00175795       0.00066989 </v>
   <v>      -0.00005847       0.00168141      -0.00116487 </v>
   <v>      -0.00099942       0.00207540       0.00046657 </v>
   <v>       0.00366081      -0.00055455       0.00075639 </v>
   <v>       0.00046898       0.00067073       0.00293399 </v>
   <v>       0.00034327      -0.00264484      -0.00230585 </v>
   <v>      -0.00093929      -0.00422243       0.00001183 </v>
   <v>       0.00137390      -0.00020305      -0.00217669 </v>
   <v>       0.00274292      -0.00074748      -0.00214623 </v>
   <v>       0.00144925      -0.00158677       0.00081665 </v>
   <v>      -0.00360258      -0.00087813      -0.00437469 </v>
   <v>      -0.00138980       0.00152778      -0.00261582 </v>
   <v>      -0.00165381      -0.00280385       0.00084163 </v>
   <v>       0.00029404       0.00094139      -0.00424442 </v>
   <v>      -0.00043184       0.00293402       0.00078393 </v>
   <v>       0.00194184      -0.00079118       0.00240516 </v>
   <v>       0.00195320       0.00213508       0.00081225 </v>
   <v>       0.00069487       0.00003170       0.00047915 </v>
   <v>       0.00034267      -0.00005232       0.00068367 </v>
   <v>      -0.00021538       0.00024385      -0.00088786 </v>
   <v>       0.00164928      -0.00102118      -0.00041716 </v>
   <v>       0.00323317      -0.00122523       0.00052762 </v>
   <v>       0.00597881       0.00133726      -0.00134550 </v>
   <v>      -0.00009897      -0.00058086       0.00312834 </v>
   <v>      -0.00140475       0.00084646       0.00116844 </v>
   <v>      -0.00179161      -0.00357758       0.00010709 </v>
   <v>       0.00256806       0.00443479       0.00104107 </v>
   <v>       0.00030046       0.00126899      -0.00192575 </v>
   <v>       0.00128077      -0.00161175      -0.00135651 </v>
   <v>       0.00316921      -0.00172529      -0.00192921 </v>
   <v>      -0.00083395      -0.00289783      -0.00070781 </v>
   <v>       0.00041008       0.00098791       0.00117885 </v>
   <v>      -0.00075490       0.00073867      -0.00028055 </v>
   <v>       0.00308106      -0.00657570      -0.00303818 </v>
   <v>      -0.00053190      -0.00017260      -0.00109854 </v>
   <v>       0.00356583       0.00112799      -0.00122614 </v>
   <v>      -0.00219644       0.00100485      -0.00063666 </v>
   <v>       0.00045370       0.00200230       0.00280555 </v>
   <v>       0.00107915      -0.00081193      -0.00094247 </v>
   <v>       0.00125261       0.00002249       0.00003927 </v>
   <v>       0.00313302      -0.00021877      -0.00422758 </v>
   <v>       0.00153420       0.00132067      -0.00062235 </v>
   <v>      -0.00186016      -0.00041889      -0.00107839 </v>
   <v>      -0.00086101       0.00114984       0.00192010 </v>
   <v>       0.00032328       0.00060838       0.00070790 </v>
   <v>      -0.00128224       0.00090038      -0.00079413 </v>
   <v>       0.00252003       0.00289143       0.00257681 </v>
   <v>       0.00189860      -0.00074167      -0.00157044 </v>
   <v>      -0.00335169      -0.00070897      -0.00094541 </v>
   <v>      -0.00171468      -0.00317218       0.00018360 </v>
   <v>      -0.00127914      -0.00018677       0.00337798 </v>
   <v>      -0.00135444       0.00390620       0.00023508 </v>
   <v>       0.00082862      -0.00150634       0.00717677 </v>
  </varray>
  <varray name="stress" >
   <v>       0.17674442      -0.01858987      -0.00354921 </v>
   <v>      -0.01858987       0.17918247       0.00292150 </v>
   <v>      -0.00354921       0.00292150      -0.25220052 </v>
  </varray>
  <energy>
   <i name="e_fr_energy">   -546.14956888 </i>
   <i name="e_wo_entrp">   -546.14956888 </i>
   <i name="e_0_energy">     -0.00000000 </i>
  </energy>
  <time name="totalsc"> 1846.89 1867.47</time>
  <eigenvalues>
   <array>
    <dimension dim="1">band</dimension>
    <dimension dim="2">kpoint</dimension>
    <dimension dim="3">spin</dimension>
    <field>eigene</field>
    <field>occ</field>
    <set>
     <set comment="spin 1">
      <set comment="kpoint 1">
       <r>  -27.1953    1.0000 </r>
       <r>  -27.1925    1.0000 </r>
       <r>  -27.1903    1.0000 </r>
       <r>  -26.0522    1.0000 </r>
       <r>  -26.0372    1.0000 </r>
       <r>  -26.0346    1.0000 </r>
       <r>  -25.8777    1.0000 </r>
       <r>  -25.8635    1.0000 </r>
       <r>  -25.8604    1.0000 </r>
       <r>  -24.6641    1.0000 </r>
       <r>  -24.6633    1.0000 </r>
       <r>  -24.6589    1.0000 </r>
       <r>  -23.8119    1.0000 </r>
       <r>  -23.8093    1.0000 </r>
       <r>  -23.8032    1.0000 </r>
       <r>  -23.0252    1.0000 </r>
       <r>  -23.0161    1.0000 </r>
       <r>  -23.0105    1.0000 </r>
       <r>  -22.2640    1.0000 </r>
       <r>  -22.2223    1.0000 </r>
       <r>  -22.2184    1.0000 </r>
       <r>  -21.8509    1.0000 </r>
       <r>  -21.6641    1.0000 </r>
       <r>  -19.6561    1.0000 </r>
       <r>  -19.6553    1.0000 </r>
       <r>  -19.3512    1.0000 </r>
       <r>  -19.3508    1.0000 </r>
       <r>  -19.1132    1.0000 </r>
       <r>  -18.7099    1.0000 </r>
       <r>  -18.7067    1.0000 </r>
       <r>  -17.8742    1.0000 </r>
       <r>  -17.8156    1.0000 </r>
       <r>  -17.8124    1.0000 </r>
       <r>  -17.1848    1.0000 </r>
       <r>  -17.0808    1.0000 </r>
       <r>  -17.0783    1.0000 </r>
       <r>  -16.1739    1.0000 </r>
       <r>  -16.1720    1.0000 </r>
       <r>  -15.9635    1.0000 </r>
       <r>  -15.8004    1.0000 </r>
       <r>  -15.7976    1.0000 </r>
       <r>  -15.6064    1.0000 </r>
       <r>  -15.4827    1.0000 </r>
       <r>  -15.4807    1.0000 </r>
       <r>  -14.8903    1.0000 </r>
       <r>  -14.8856    1.0000 </r>
       <r>  -14.7492    1.0000 </r>
       <r>  -14.4472    1.0000 </r>
       <r>  -13.9057    1.0000 </r>
       <r>  -13.9036    1.0000 </r>
       <r>  -13.8712    1.0000 </r>
       <r>  -13.6418    1.0000 </r>
       <r>  -13.6389    1.0000 </r>
       <r>  -13.5961    1.0000 </r>
       <r>  -13.5948    1.0000 </r>
       <r>  -13.2768    1.0000 </r>
       <r>  -13.0611    1.0000 </r>
       <r>  -12.7718    1.0000 </r>
       <r>  -12.5878    1.0000 </r>
       <r>  -12.5849    1.0000 </r>
       <r>  -12.2345    1.0000 </r>
       <r>  -12.2181    1.0000 </r>
       <r>  -12.2164    1.0000 </r>
       <r>  -12.0397    1.0000 </r>
       <r>  -11.8318    1.0000 </r>
       <r>  -11.7319    1.0000 </r>
       <r>  -11.7287    1.0000 </r>
       <r>  -11.6932    1.0000 </r>
       <r>  -11.4044    1.0000 </r>
       <r>  -11.3884    1.0000 </r>
       <r>  -11.3848    1.0000 </r>
       <r>  -11.2350    1.0000 </r>
       <r>  -11.2237    1.0000 </r>
       <r>  -11.2192    1.0000 </r>
       <r>  -10.8296    1.0000 </r>
       <r>  -10.7485    1.0000 </r>
       <r>  -10.7452    1.0000 </r>
       <r>  -10.7014    1.0000 </r>
       <r>  -10.6618    1.0000 </r>
       <r>  -10.6506    1.0000 </r>
       <r>  -10.5843    1.0000 </r>
       <r>  -10.4357    1.0000 </r>
       <r>  -10.4270    1.0000 </r>
       <r>  -10.3426    1.0000 </r>
       <r>  -10.3396    1.0000 </r>
       <r>  -10.2728    1.0000 </r>
       <r>  -10.1262    1.0000 </r>
       <r>  -10.0744    1.0000 </r>
       <r>  -10.0720    1.0000 </r>
       <r>   -9.9181    1.0000 </r>
       <r>   -9.8996    1.0000 </r>
       <r>   -9.8945    1.0000 </r>
       <r>   -9.7363    1.0000 </r>
       <r>   -9.7201    1.0000 </r>
       <r>   -9.7159    1.0000 </r>
       <r>   -9.3136    1.0000 </r>
       <r>   -8.9401    1.0000 </r>
       <r>   -8.9382    1.0000 </r>
       <r>   -8.8090    1.0000 </r>
       <r>   -8.7704    1.0000 </r>
       <r>   -8.7678    1.0000 </r>
       <r>   -8.5690    1.0000 </r>
       <r>   -8.5640    1.0000 </r>
       <r>   -8.4774    1.0000 </r>
       <r>   -8.4270    1.0000 </r>
       <r>   -8.4245    1.0000 </r>
       <r>   -8.3914    1.0000 </r>
       <r>   -8.3853    1.0000 </r>
       <r>   -8.3752    1.0000 </r>
       <r>   -8.1513    1.0000 </r>
       <r>   -7.0953    1.0000 </r>
       <r>   -7.0947    1.0000 </r>
       <r>   -7.0858    1.0000 </r>
       <r>   -7.0243    1.0000 </r>
       <r>   -7.0206    1.0000 </r>
       <r>   -6.9427    1.0000 </r>
       <r>   -6.8216    1.0000 </r>
       <r>   -6.8181    1.0000 </r>
       <r>   -6.7532    1.0000 </r>
       <r>   -6.6787    1.0000 </r>
       <r>   -6.6764    1.0000 </r>
       <r>   -6.6017    1.0000 </r>
       <r>   -6.5998    1.0000 </r>
       <r>   -6.3870    1.0000 </r>
       <r>   -6.2949    1.0000 </r>
       <r>   -6.2893    1.0000 </r>
       <r>   -5.9341    1.0000 </r>
       <r>   -5.7537    1.0000 </r>
       <r>   -5.7514    1.0000 </r>
       <r>   -5.4529    1.0000 </r>
       <r>   -5.3019    1.0000 </r>
       <r>   -5.2975    1.0000 </r>
       <r>   -5.0825    1.0000 </r>
       <r>   -5.0630    1.0000 </r>
       <r>   -5.0620    1.0000 </r>
       <r>   -2.7113    0.0000 </r>
       <r>   -2.7097    0.0000 </r>
       <r>   -2.3798    0.0000 </r>
       <r>   -2.3776    0.0000 </r>
       <r>   -2.1527    0.0000 </r>
       <r>   -1.7074    0.0000 </r>
       <r>   -1.7048    0.0000 </r>
       <r>   -1.5274    0.0000 </r>
       <r>   -1.1269    0.0000 </r>
       <r>   -0.9374    0.0000 </r>
       <r>   -0.9346    0.0000 </r>
       <r>   -0.5195    0.0000 </r>
       <r>   -0.3210    0.0000 </r>
       <r>   -0.1864    0.0000 </r>
       <r>   -0.1711    0.0000 </r>
       <r>   -0.1671    0.0000 </r>
       <r>    0.0114    0.0000 </r>
       <r>    0.0152    0.0000 </r>
       <r>    0.2023    0.0000 </r>
       <r>    0.3907    0.0000 </r>
       <r>    0.3916    0.0000 </r>
       <r>    0.5077    0.0000 </r>
       <r>    0.5674    0.0000 </r>
       <r>    0.6096    0.0000 </r>
       <r>    0.6333    0.0000 </r>
       <r>    0.6351    0.0000 </r>
       <r>    0.6867    0.0000 </r>
       <r>    0.6897    0.0000 </r>
       <r>    0.7164    0.0000 </r>
       <r>    0.7696    0.0000 </r>
       <r>    0.7743    0.0000 </r>
       <r>    0.8357    0.0000 </r>
       <r>    0.9138    0.0000 </r>
       <r>    0.9155    0.0000 </r>
       <r>    0.9232    0.0000 </r>
       <r>    1.0319    0.0000 </r>
       <r>    1.0385    0.0000 </r>
       <r>    1.0560    0.0000 </r>
       <r>    1.0707    0.0000 </r>
       <r>    1.0754    0.0000 </r>
       <r>    1.0757    0.0000 </r>
      </set>
      <set comment="kpoint 2">
       <r>  -27.1953    1.0000 </r>
       <r>  -27.1925    1.0000 </r>
       <r>  -27.1903    1.0000 </r>
       <r>  -26.0522    1.0000 </r>
       <r>  -26.0372    1.0000 </r>
       <r>  -26.0346    1.0000 </r>
       <r>  -25.8777    1.0000 </r>
       <r>  -25.8635    1.0000 </r>
       <r>  -25.8604    1.0000 </r>
       <r>  -24.6641    1.0000 </r>
       <r>  -24.6633    1.0000 </r>
       <r>  -24.6589    1.0000 </r>
       <r>  -23.8119    1.0000 </r>
       <r>  -23.8093    1.0000 </r>
       <r>  -23.8032    1.0000 </r>
       <r>  -23.0252    1.0000 </r>
       <r>  -23.0161    1.0000 </r>
       <r>  -23.0105    1.0000 </r>
       <r>  -22.2639    1.0000 </r>
       <r>  -22.2224    1.0000 </r>
       <r>  -22.2184    1.0000 </r>
       <r>  -21.8509    1.0000 </r>
       <r>  -21.6641    1.0000 </r>
       <r>  -19.6560    1.0000 </r>
       <r>  -19.6553    1.0000 </r>
       <r>  -19.3520    1.0000 </r>
       <r>  -19.3509    1.0000 </r>
       <r>  -19.1120    1.0000 </r>
       <r>  -18.7103    1.0000 </r>
       <r>  -18.7067    1.0000 </r>
       <r>  -17.8742    1.0000 </r>
       <r>  -17.8156    1.0000 </r>
       <r>  -17.8124    1.0000 </r>
       <r>  -17.1847    1.0000 </r>
       <r>  -17.0809    1.0000 </r>
       <r>  -17.0783    1.0000 </r>
       <r>  -16.1739    1.0000 </r>
       <r>  -16.1718    1.0000 </r>
       <r>  -15.9637    1.0000 </r>
       <r>  -15.8003    1.0000 </r>
       <r>  -15.7976    1.0000 </r>
       <r>  -15.6082    1.0000 </r>
       <r>  -15.4821    1.0000 </r>
       <r>  -15.4790    1.0000 </r>
       <r>  -14.8912    1.0000 </r>
       <r>  -14.8857    1.0000 </r>
       <r>  -14.7486    1.0000 </r>
       <r>  -14.4471    1.0000 </r>
       <r>  -13.9058    1.0000 </r>
       <r>  -13.9038    1.0000 </r>
       <r>  -13.8711    1.0000 </r>
       <r>  -13.6418    1.0000 </r>
       <r>  -13.6389    1.0000 </r>
       <r>  -13.5961    1.0000 </r>
       <r>  -13.5949    1.0000 </r>
       <r>  -13.2766    1.0000 </r>
       <r>  -13.0611    1.0000 </r>
       <r>  -12.7715    1.0000 </r>
       <r>  -12.5879    1.0000 </r>
       <r>  -12.5851    1.0000 </r>
       <r>  -12.2357    1.0000 </r>
       <r>  -12.2169    1.0000 </r>
       <r>  -12.2164    1.0000 </r>
       <r>  -12.0396    1.0000 </r>
       <r>  -11.8318    1.0000 </r>
       <r>  -11.7319    1.0000 </r>
       <r>  -11.7287    1.0000 </r>
       <r>  -11.6932    1.0000 </r>
       <r>  -11.4044    1.0000 </r>
       <r>  -11.3884    1.0000 </r>
       <r>  -11.3848    1.0000 </r>
       <r>  -11.2351    1.0000 </r>
       <r>  -11.2236    1.0000 </r>
       <r>  -11.2192    1.0000 </r>
       <r>  -10.8296    1.0000 </r>
       <r>  -10.7484    1.0000 </r>
       <r>  -10.7452    1.0000 </r>
       <r>  -10.7015    1.0000 </r>
       <r>  -10.6619    1.0000 </r>
       <r>  -10.6506    1.0000 </r>
       <r>  -10.5841    1.0000 </r>
       <r>  -10.4358    1.0000 </r>
       <r>  -10.4272    1.0000 </r>
       <r>  -10.3426    1.0000 </r>
       <r>  -10.3396    1.0000 </r>
       <r>  -10.2726    1.0000 </r>
       <r>  -10.1260    1.0000 </r>
       <r>  -10.0743    1.0000 </r>
       <r>  -10.0720    1.0000 </r>
       <r>   -9.9182    1.0000 </r>
       <r>   -9.8997    1.0000 </r>
       <r>   -9.8945    1.0000 </r>
       <r>   -9.7363    1.0000 </r>
       <r>   -9.7204    1.0000 </r>
       <r>   -9.7162    1.0000 </r>
       <r>   -9.3127    1.0000 </r>
       <r>   -8.9401    1.0000 </r>
       <r>   -8.9382    1.0000 </r>
       <r>   -8.8102    1.0000 </r>
       <r>   -8.7704    1.0000 </r>
       <r>   -8.7677    1.0000 </r>
       <r>   -8.5683    1.0000 </r>
       <r>   -8.5639    1.0000 </r>
       <r>   -8.4774    1.0000 </r>
       <r>   -8.4270    1.0000 </r>
       <r>   -8.4245    1.0000 </r>
       <r>   -8.3915    1.0000 </r>
       <r>   -8.3853    1.0000 </r>
       <r>   -8.3748    1.0000 </r>
       <r>   -8.1517    1.0000 </r>
       <r>   -7.0953    1.0000 </r>
       <r>   -7.0946    1.0000 </r>
       <r>   -7.0858    1.0000 </r>
       <r>   -7.0243    1.0000 </r>
       <r>   -7.0206    1.0000 </r>
       <r>   -6.9429    1.0000 </r>
       <r>   -6.8215    1.0000 </r>
       <r>   -6.8181    1.0000 </r>
       <r>   -6.7532    1.0000 </r>
       <r>   -6.6786    1.0000 </r>
       <r>   -6.6764    1.0000 </r>
       <r>   -6.6018    1.0000 </r>
       <r>   -6.5999    1.0000 </r>
       <r>   -6.3869    1.0000 </r>
       <r>   -6.2949    1.0000 </r>
       <r>   -6.2893    1.0000 </r>
       <r>   -5.9339    1.0000 </r>
       <r>   -5.7537    1.0000 </r>
       <r>   -5.7517    1.0000 </r>
       <r>   -5.4526    1.0000 </r>
       <r>   -5.3020    1.0000 </r>
       <r>   -5.2975    1.0000 </r>
       <r>   -5.0825    1.0000 </r>
       <r>   -5.0630    1.0000 </r>
       <r>   -5.0620    1.0000 </r>
       <r>   -2.7112    0.0000 </r>
       <r>   -2.7096    0.0000 </r>
       <r>   -2.3799    0.0000 </r>
       <r>   -2.3789    0.0000 </r>
       <r>   -2.1512    0.0000 </r>
       <r>   -1.7076    0.0000 </r>
       <r>   -1.7050    0.0000 </r>
       <r>   -1.5274    0.0000 </r>
       <r>   -1.1296    0.0000 </r>
       <r>   -0.9373    0.0000 </r>
       <r>   -0.9315    0.0000 </r>
       <r>   -0.5194    0.0000 </r>
       <r>   -0.3216    0.0000 </r>
       <r>   -0.1877    0.0000 </r>
       <r>   -0.1708    0.0000 </r>
       <r>   -0.1665    0.0000 </r>
       <r>    0.0115    0.0000 </r>
       <r>    0.0152    0.0000 </r>
       <r>    0.2026    0.0000 </r>
       <r>    0.3903    0.0000 </r>
       <r>    0.3914    0.0000 </r>
       <r>    0.5080    0.0000 </r>
       <r>    0.5672    0.0000 </r>
       <r>    0.6086    0.0000 </r>
       <r>    0.6332    0.0000 </r>
       <r>    0.6358    0.0000 </r>
       <r>    0.6871    0.0000 </r>
       <r>    0.6902    0.0000 </r>
       <r>    0.7167    0.0000 </r>
       <r>    0.7696    0.0000 </r>
       <r>    0.7742    0.0000 </r>
       <r>    0.8351    0.0000 </r>
       <r>    0.9091    0.0000 </r>
       <r>    0.9156    0.0000 </r>
       <r>    0.9279    0.0000 </r>
       <r>    1.0313    0.0000 </r>
       <r>    1.0381    0.0000 </r>
       <r>    1.0557    0.0000 </r>
       <r>    1.0697    0.0000 </r>
       <r>    1.0751    0.0000 </r>
       <r>    1.0780    0.0000 </r>
      </set>
      <set comment="kpoint 3">
       <r>  -27.1953    1.0000 </r>
       <r>  -27.1925    1.0000 </r>
       <r>  -27.1903    1.0000 </r>
       <r>  -26.0522    1.0000 </r>
       <r>  -26.0372    1.0000 </r>
       <r>  -26.0346    1.0000 </r>
       <r>  -25.8777    1.0000 </r>
       <r>  -25.8635    1.0000 </r>
       <r>  -25.8604    1.0000 </r>
       <r>  -24.6641    1.0000 </r>
       <r>  -24.6633    1.0000 </r>
       <r>  -24.6589    1.0000 </r>
       <r>  -23.8119    1.0000 </r>
       <r>  -23.8093    1.0000 </r>
       <r>  -23.8032    1.0000 </r>
       <r>  -23.0252    1.0000 </r>
       <r>  -23.0161    1.0000 </r>
       <r>  -23.0105    1.0000 </r>
       <r>  -22.2637    1.0000 </r>
       <r>  -22.2225    1.0000 </r>
       <r>  -22.2185    1.0000 </r>
       <r>  -21.8509    1.0000 </r>
       <r>  -21.6641    1.0000 </r>
       <r>  -19.6557    1.0000 </r>
       <r>  -19.6549    1.0000 </r>
       <r>  -19.3550    1.0000 </r>
       <r>  -19.3510    1.0000 </r>
       <r>  -19.1086    1.0000 </r>
       <r>  -18.7114    1.0000 </r>
       <r>  -18.7069    1.0000 </r>
       <r>  -17.8741    1.0000 </r>
       <r>  -17.8156    1.0000 </r>
       <r>  -17.8124    1.0000 </r>
       <r>  -17.1842    1.0000 </r>
       <r>  -17.0811    1.0000 </r>
       <r>  -17.0784    1.0000 </r>
       <r>  -16.1738    1.0000 </r>
       <r>  -16.1712    1.0000 </r>
       <r>  -15.9644    1.0000 </r>
       <r>  -15.8002    1.0000 </r>
       <r>  -15.7976    1.0000 </r>
       <r>  -15.6134    1.0000 </r>
       <r>  -15.4819    1.0000 </r>
       <r>  -15.4731    1.0000 </r>
       <r>  -14.8939    1.0000 </r>
       <r>  -14.8859    1.0000 </r>
       <r>  -14.7467    1.0000 </r>
       <r>  -14.4469    1.0000 </r>
       <r>  -13.9062    1.0000 </r>
       <r>  -13.9041    1.0000 </r>
       <r>  -13.8708    1.0000 </r>
       <r>  -13.6418    1.0000 </r>
       <r>  -13.6390    1.0000 </r>
       <r>  -13.5962    1.0000 </r>
       <r>  -13.5951    1.0000 </r>
       <r>  -13.2761    1.0000 </r>
       <r>  -13.0612    1.0000 </r>
       <r>  -12.7708    1.0000 </r>
       <r>  -12.5882    1.0000 </r>
       <r>  -12.5856    1.0000 </r>
       <r>  -12.2387    1.0000 </r>
       <r>  -12.2164    1.0000 </r>
       <r>  -12.2140    1.0000 </r>
       <r>  -12.0393    1.0000 </r>
       <r>  -11.8318    1.0000 </r>
       <r>  -11.7319    1.0000 </r>
       <r>  -11.7287    1.0000 </r>
       <r>  -11.6934    1.0000 </r>
       <r>  -11.4045    1.0000 </r>
       <r>  -11.3884    1.0000 </r>
       <r>  -11.3847    1.0000 </r>
       <r>  -11.2356    1.0000 </r>
       <r>  -11.2232    1.0000 </r>
       <r>  -11.2191    1.0000 </r>
       <r>  -10.8295    1.0000 </r>
       <r>  -10.7483    1.0000 </r>
       <r>  -10.7451    1.0000 </r>
       <r>  -10.7016    1.0000 </r>
       <r>  -10.6621    1.0000 </r>
       <r>  -10.6506    1.0000 </r>
       <r>  -10.5836    1.0000 </r>
       <r>  -10.4364    1.0000 </r>
       <r>  -10.4277    1.0000 </r>
       <r>  -10.3426    1.0000 </r>
       <r>  -10.3396    1.0000 </r>
       <r>  -10.2720    1.0000 </r>
       <r>  -10.1253    1.0000 </r>
       <r>  -10.0739    1.0000 </r>
       <r>  -10.0720    1.0000 </r>
       <r>   -9.9185    1.0000 </r>
       <r>   -9.8999    1.0000 </r>
       <r>   -9.8945    1.0000 </r>
       <r>   -9.7363    1.0000 </r>
       <r>   -9.7214    1.0000 </r>
       <r>   -9.7167    1.0000 </r>
       <r>   -9.3102    1.0000 </r>
       <r>   -8.9401    1.0000 </r>
       <r>   -8.9383    1.0000 </r>
       <r>   -8.8139    1.0000 </r>
       <r>   -8.7702    1.0000 </r>
       <r>   -8.7676    1.0000 </r>
       <r>   -8.5666    1.0000 </r>
       <r>   -8.5634    1.0000 </r>
       <r>   -8.4774    1.0000 </r>
       <r>   -8.4270    1.0000 </r>
       <r>   -8.4245    1.0000 </r>
       <r>   -8.3919    1.0000 </r>
       <r>   -8.3853    1.0000 </r>
       <r>   -8.3737    1.0000 </r>
       <r>   -8.1526    1.0000 </r>
       <r>   -7.0953    1.0000 </r>
       <r>   -7.0945    1.0000 </r>
       <r>   -7.0856    1.0000 </r>
       <r>   -7.0243    1.0000 </r>
       <r>   -7.0205    1.0000 </r>
       <r>   -6.9434    1.0000 </r>
       <r>   -6.8214    1.0000 </r>
       <r>   -6.8181    1.0000 </r>
       <r>   -6.7532    1.0000 </r>
       <r>   -6.6784    1.0000 </r>
       <r>   -6.6764    1.0000 </r>
       <r>   -6.6019    1.0000 </r>
       <r>   -6.6000    1.0000 </r>
       <r>   -6.3866    1.0000 </r>
       <r>   -6.2950    1.0000 </r>
       <r>   -6.2895    1.0000 </r>
       <r>   -5.9333    1.0000 </r>
       <r>   -5.7537    1.0000 </r>
       <r>   -5.7526    1.0000 </r>
       <r>   -5.4518    1.0000 </r>
       <r>   -5.3024    1.0000 </r>
       <r>   -5.2975    1.0000 </r>
       <r>   -5.0824    1.0000 </r>
       <r>   -5.0631    1.0000 </r>
       <r>   -5.0620    1.0000 </r>
       <r>   -2.7108    0.0000 </r>
       <r>   -2.7093    0.0000 </r>
       <r>   -2.3826    0.0000 </r>
       <r>   -2.3798    0.0000 </r>
       <r>   -2.1466    0.0000 </r>
       <r>   -1.7082    0.0000 </r>
       <r>   -1.7053    0.0000 </r>
       <r>   -1.5273    0.0000 </r>
       <r>   -1.1373    0.0000 </r>
       <r>   -0.9373    0.0000 </r>
       <r>   -0.9228    0.0000 </r>
       <r>   -0.5192    0.0000 </r>
       <r>   -0.3232    0.0000 </r>
       <r>   -0.1911    0.0000 </r>
       <r>   -0.1701    0.0000 </r>
       <r>   -0.1648    0.0000 </r>
       <r>    0.0118    0.0000 </r>
       <r>    0.0151    0.0000 </r>
       <r>    0.2033    0.0000 </r>
       <r>    0.3892    0.0000 </r>
       <r>    0.3910    0.0000 </r>
       <r>    0.5091    0.0000 </r>
       <r>    0.5669    0.0000 </r>
       <r>    0.6058    0.0000 </r>
       <r>    0.6326    0.0000 </r>
       <r>    0.6377    0.0000 </r>
       <r>    0.6882    0.0000 </r>
       <r>    0.6915    0.0000 </r>
       <r>    0.7177    0.0000 </r>
       <r>    0.7694    0.0000 </r>
       <r>    0.7740    0.0000 </r>
       <r>    0.8333    0.0000 </r>
       <r>    0.9017    0.0000 </r>
       <r>    0.9160    0.0000 </r>
       <r>    0.9352    0.0000 </r>
       <r>    1.0295    0.0000 </r>
       <r>    1.0371    0.0000 </r>
       <r>    1.0550    0.0000 </r>
       <r>    1.0682    0.0000 </r>
       <r>    1.0755    0.0000 </r>
       <r>    1.0813    0.0000 </r>
      </set>
      <set comment="kpoint 4">
       <r>  -27.1952    1.0000 </r>
       <r>  -27.1925    1.0000 </r>
       <r>  -27.1903    1.0000 </r>
       <r>  -26.0522    1.0000 </r>
       <r>  -26.0372    1.0000 </r>
       <r>  -26.0346    1.0000 </r>
       <r>  -25.8777    1.0000 </r>
       <r>  -25.8635    1.0000 </r>
       <r>  -25.8604    1.0000 </r>
       <r>  -24.6641    1.0000 </r>
       <r>  -24.6633    1.0000 </r>
       <r>  -24.6589    1.0000 </r>
       <r>  -23.8119    1.0000 </r>
       <r>  -23.8093    1.0000 </r>
       <r>  -23.8032    1.0000 </r>
       <r>  -23.0251    1.0000 </r>
       <r>  -23.0162    1.0000 </r>
       <r>  -23.0106    1.0000 </r>
       <r>  -22.2634    1.0000 </r>
       <r>  -22.2227    1.0000 </r>
       <r>  -22.2187    1.0000 </r>
       <r>  -21.8509    1.0000 </r>
       <r>  -21.6641    1.0000 </r>
       <r>  -19.6555    1.0000 </r>
       <r>  -19.6538    1.0000 </r>
       <r>  -19.3598    1.0000 </r>
       <r>  -19.3510    1.0000 </r>
       <r>  -19.1030    1.0000 </r>
       <r>  -18.7135    1.0000 </r>
       <r>  -18.7070    1.0000 </r>
       <r>  -17.8741    1.0000 </r>
       <r>  -17.8156    1.0000 </r>
       <r>  -17.8124    1.0000 </r>
       <r>  -17.1835    1.0000 </r>
       <r>  -17.0814    1.0000 </r>
       <r>  -17.0786    1.0000 </r>
       <r>  -16.1738    1.0000 </r>
       <r>  -16.1702    1.0000 </r>
       <r>  -15.9655    1.0000 </r>
       <r>  -15.8000    1.0000 </r>
       <r>  -15.7976    1.0000 </r>
       <r>  -15.6210    1.0000 </r>
       <r>  -15.4819    1.0000 </r>
       <r>  -15.4639    1.0000 </r>
       <r>  -14.8986    1.0000 </r>
       <r>  -14.8860    1.0000 </r>
       <r>  -14.7438    1.0000 </r>
       <r>  -14.4465    1.0000 </r>
       <r>  -13.9069    1.0000 </r>
       <r>  -13.9046    1.0000 </r>
       <r>  -13.8703    1.0000 </r>
       <r>  -13.6418    1.0000 </r>
       <r>  -13.6390    1.0000 </r>
       <r>  -13.5966    1.0000 </r>
       <r>  -13.5952    1.0000 </r>
       <r>  -13.2752    1.0000 </r>
       <r>  -13.0613    1.0000 </r>
       <r>  -12.7695    1.0000 </r>
       <r>  -12.5889    1.0000 </r>
       <r>  -12.5862    1.0000 </r>
       <r>  -12.2425    1.0000 </r>
       <r>  -12.2165    1.0000 </r>
       <r>  -12.2104    1.0000 </r>
       <r>  -12.0389    1.0000 </r>
       <r>  -11.8318    1.0000 </r>
       <r>  -11.7318    1.0000 </r>
       <r>  -11.7287    1.0000 </r>
       <r>  -11.6936    1.0000 </r>
       <r>  -11.4046    1.0000 </r>
       <r>  -11.3883    1.0000 </r>
       <r>  -11.3846    1.0000 </r>
       <r>  -11.2363    1.0000 </r>
       <r>  -11.2227    1.0000 </r>
       <r>  -11.2190    1.0000 </r>
       <r>  -10.8295    1.0000 </r>
       <r>  -10.7481    1.0000 </r>
       <r>  -10.7450    1.0000 </r>
       <r>  -10.7018    1.0000 </r>
       <r>  -10.6624    1.0000 </r>
       <r>  -10.6507    1.0000 </r>
       <r>  -10.5827    1.0000 </r>
       <r>  -10.4373    1.0000 </r>
       <r>  -10.4283    1.0000 </r>
       <r>  -10.3425    1.0000 </r>
       <r>  -10.3397    1.0000 </r>
       <r>  -10.2713    1.0000 </r>
       <r>  -10.1240    1.0000 </r>
       <r>  -10.0733    1.0000 </r>
       <r>  -10.0720    1.0000 </r>
       <r>   -9.9191    1.0000 </r>
       <r>   -9.9003    1.0000 </r>
       <r>   -9.8944    1.0000 </r>
       <r>   -9.7364    1.0000 </r>
       <r>   -9.7235    1.0000 </r>
       <r>   -9.7173    1.0000 </r>
       <r>   -9.3060    1.0000 </r>
       <r>   -8.9401    1.0000 </r>
       <r>   -8.9385    1.0000 </r>
       <r>   -8.8196    1.0000 </r>
       <r>   -8.7701    1.0000 </r>
       <r>   -8.7675    1.0000 </r>
       <r>   -8.5652    1.0000 </r>
       <r>   -8.5612    1.0000 </r>
       <r>   -8.4774    1.0000 </r>
       <r>   -8.4270    1.0000 </r>
       <r>   -8.4244    1.0000 </r>
       <r>   -8.3924    1.0000 </r>
       <r>   -8.3853    1.0000 </r>
       <r>   -8.3720    1.0000 </r>
       <r>   -8.1541    1.0000 </r>
       <r>   -7.0954    1.0000 </r>
       <r>   -7.0943    1.0000 </r>
       <r>   -7.0854    1.0000 </r>
       <r>   -7.0244    1.0000 </r>
       <r>   -7.0203    1.0000 </r>
       <r>   -6.9441    1.0000 </r>
       <r>   -6.8211    1.0000 </r>
       <r>   -6.8180    1.0000 </r>
       <r>   -6.7532    1.0000 </r>
       <r>   -6.6782    1.0000 </r>
       <r>   -6.6763    1.0000 </r>
       <r>   -6.6022    1.0000 </r>
       <r>   -6.6003    1.0000 </r>
       <r>   -6.3860    1.0000 </r>
       <r>   -6.2952    1.0000 </r>
       <r>   -6.2898    1.0000 </r>
       <r>   -5.9323    1.0000 </r>
       <r>   -5.7544    1.0000 </r>
       <r>   -5.7536    1.0000 </r>
       <r>   -5.4504    1.0000 </r>
       <r>   -5.3030    1.0000 </r>
       <r>   -5.2974    1.0000 </r>
       <r>   -5.0823    1.0000 </r>
       <r>   -5.0632    1.0000 </r>
       <r>   -5.0620    1.0000 </r>
       <r>   -2.7105    0.0000 </r>
       <r>   -2.7085    0.0000 </r>
       <r>   -2.3885    0.0000 </r>
       <r>   -2.3798    0.0000 </r>
       <r>   -2.1394    0.0000 </r>
       <r>   -1.7094    0.0000 </r>
       <r>   -1.7056    0.0000 </r>
       <r>   -1.5271    0.0000 </r>
       <r>   -1.1486    0.0000 </r>
       <r>   -0.9372    0.0000 </r>
       <r>   -0.9095    0.0000 </r>
       <r>   -0.5188    0.0000 </r>
       <r>   -0.3259    0.0000 </r>
       <r>   -0.1962    0.0000 </r>
       <r>   -0.1691    0.0000 </r>
       <r>   -0.1624    0.0000 </r>
       <r>    0.0123    0.0000 </r>
       <r>    0.0149    0.0000 </r>
       <r>    0.2044    0.0000 </r>
       <r>    0.3873    0.0000 </r>
       <r>    0.3903    0.0000 </r>
       <r>    0.5108    0.0000 </r>
       <r>    0.5663    0.0000 </r>
       <r>    0.6021    0.0000 </r>
       <r>    0.6316    0.0000 </r>
       <r>    0.6402    0.0000 </r>
       <r>    0.6899    0.0000 </r>
       <r>    0.6935    0.0000 </r>
       <r>    0.7196    0.0000 </r>
       <r>    0.7686    0.0000 </r>
       <r>    0.7741    0.0000 </r>
       <r>    0.8307    0.0000 </r>
       <r>    0.8943    0.0000 </r>
       <r>    0.9165    0.0000 </r>
       <r>    0.9423    0.0000 </r>
       <r>    1.0268    0.0000 </r>
       <r>    1.0361    0.0000 </r>
       <r>    1.0541    0.0000 </r>
       <r>    1.0669    0.0000 </r>
       <r>    1.0764    0.0000 </r>
       <r>    1.0844    0.0000 </r>
      </set>
      <set comment="kpoint 5">
       <r>  -27.1952    1.0000 </r>
       <r>  -27.1925    1.0000 </r>
       <r>  -27.1903    1.0000 </r>
       <r>  -26.0522    1.0000 </r>
       <r>  -26.0372    1.0000 </r>
       <r>  -26.0346    1.0000 </r>
       <r>  -25.8777    1.0000 </r>
       <r>  -25.8635    1.0000 </r>
       <r>  -25.8604    1.0000 </r>
       <r>  -24.6641    1.0000 </r>
       <r>  -24.6633    1.0000 </r>
       <r>  -24.6589    1.0000 </r>
       <r>  -23.8118    1.0000 </r>
       <r>  -23.8093    1.0000 </r>
       <r>  -23.8032    1.0000 </r>
       <r>  -23.0250    1.0000 </r>
       <r>  -23.0162    1.0000 </r>
       <r>  -23.0106    1.0000 </r>
       <r>  -22.2630    1.0000 </r>
       <r>  -22.2229    1.0000 </r>
       <r>  -22.2189    1.0000 </r>
       <r>  -21.8508    1.0000 </r>
       <r>  -21.6641    1.0000 </r>
       <r>  -19.6555    1.0000 </r>
       <r>  -19.6522    1.0000 </r>
       <r>  -19.3661    1.0000 </r>
       <r>  -19.3510    1.0000 </r>
       <r>  -19.0957    1.0000 </r>
       <r>  -18.7163    1.0000 </r>
       <r>  -18.7071    1.0000 </r>
       <r>  -17.8740    1.0000 </r>
       <r>  -17.8156    1.0000 </r>
       <r>  -17.8124    1.0000 </r>
       <r>  -17.1825    1.0000 </r>
       <r>  -17.0819    1.0000 </r>
       <r>  -17.0787    1.0000 </r>
       <r>  -16.1738    1.0000 </r>
       <r>  -16.1687    1.0000 </r>
       <r>  -15.9671    1.0000 </r>
       <r>  -15.7997    1.0000 </r>
       <r>  -15.7975    1.0000 </r>
       <r>  -15.6301    1.0000 </r>
       <r>  -15.4820    1.0000 </r>
       <r>  -15.4525    1.0000 </r>
       <r>  -14.9049    1.0000 </r>
       <r>  -14.8860    1.0000 </r>
       <r>  -14.7401    1.0000 </r>
       <r>  -14.4459    1.0000 </r>
       <r>  -13.9080    1.0000 </r>
       <r>  -13.9050    1.0000 </r>
       <r>  -13.8696    1.0000 </r>
       <r>  -13.6418    1.0000 </r>
       <r>  -13.6392    1.0000 </r>
       <r>  -13.5974    1.0000 </r>
[...]
       <r>   -27.7808     0.0000     0.0000 </r>
       <r>   -27.6769     0.0000     0.0000 </r>
       <r>   -27.5730     0.0000     0.0000 </r>
       <r>   -27.4692     0.0000     0.0000 </r>
       <r>   -27.3653     0.0000     0.0000 </r>
       <r>   -27.2614     0.0000     0.0000 </r>
       <r>   -27.1575    57.7513     6.0000 </r>
       <r>   -27.0536     0.0000     6.0000 </r>
       <r>   -26.9497     0.0000     6.0000 </r>
       <r>   -26.8458     0.0000     6.0000 </r>
       <r>   -26.7419     0.0000     6.0000 </r>
       <r>   -26.6380     0.0000     6.0000 </r>
       <r>   -26.5341     0.0000     6.0000 </r>
       <r>   -26.4302     0.0000     6.0000 </r>
       <r>   -26.3263     0.0000     6.0000 </r>
       <r>   -26.2224     0.0000     6.0000 </r>
       <r>   -26.1185     0.0000     6.0000 </r>
       <r>   -26.0146    57.6912    11.9938 </r>
       <r>   -25.9107     0.0000    12.0000 </r>
       <r>   -25.8069    57.7513    18.0000 </r>
       <r>   -25.7030     0.0000    18.0000 </r>
       <r>   -25.5991     0.0000    18.0000 </r>
       <r>   -25.4952     0.0000    18.0000 </r>
       <r>   -25.3913     0.0000    18.0000 </r>
       <r>   -25.2874     0.0000    18.0000 </r>
       <r>   -25.1835     0.0000    18.0000 </r>
       <r>   -25.0796     0.0000    18.0000 </r>
       <r>   -24.9757     0.0000    18.0000 </r>
       <r>   -24.8718     0.0000    18.0000 </r>
       <r>   -24.7679     0.0000    18.0000 </r>
       <r>   -24.6640    22.9515    20.3845 </r>
       <r>   -24.5601     0.0000    24.0000 </r>
       <r>   -24.4562     0.0000    24.0000 </r>
       <r>   -24.3523     0.0000    24.0000 </r>
       <r>   -24.2485     0.0000    24.0000 </r>
       <r>   -24.1446     0.0000    24.0000 </r>
       <r>   -24.0407     0.0000    24.0000 </r>
       <r>   -23.9368     0.0000    24.0000 </r>
       <r>   -23.8329     0.0317    24.0033 </r>
       <r>   -23.7290    19.2501    30.0000 </r>
       <r>   -23.6251     0.0000    30.0000 </r>
       <r>   -23.5212     0.0000    30.0000 </r>
       <r>   -23.4173     0.0000    30.0000 </r>
       <r>   -23.3134     0.0000    30.0000 </r>
       <r>   -23.2095     0.0000    30.0000 </r>
       <r>   -23.1056     0.0000    30.0000 </r>
       <r>   -23.0017    55.6412    35.7808 </r>
       <r>   -22.8978     0.0000    36.0000 </r>
       <r>   -22.7939     0.0000    36.0000 </r>
       <r>   -22.6900     0.0000    36.0000 </r>
       <r>   -22.5862     0.0000    36.0000 </r>
       <r>   -22.4823     0.0000    36.0000 </r>
       <r>   -22.3784     0.0000    36.0000 </r>
       <r>   -22.2745     0.2878    36.0299 </r>
       <r>   -22.1706    47.4834    42.0000 </r>
       <r>   -22.0667     0.0000    42.0000 </r>
       <r>   -21.9628     0.0000    42.0000 </r>
       <r>   -21.8589     2.2079    42.2294 </r>
       <r>   -21.7550     0.0000    44.0000 </r>
       <r>   -21.6511    18.6182    45.9343 </r>
       <r>   -21.5472     0.0000    46.0000 </r>
       <r>   -21.4433     0.0000    46.0000 </r>
       <r>   -21.3394     0.0000    46.0000 </r>
       <r>   -21.2355     0.0000    46.0000 </r>
       <r>   -21.1316     0.0000    46.0000 </r>
       <r>   -21.0277     0.0000    46.0000 </r>
       <r>   -20.9239     0.0000    46.0000 </r>
       <r>   -20.8200     0.0000    46.0000 </r>
       <r>   -20.7161     0.0000    46.0000 </r>
       <r>   -20.6122     0.0000    46.0000 </r>
       <r>   -20.5083     0.0000    46.0000 </r>
       <r>   -20.4044     0.0000    46.0000 </r>
       <r>   -20.3005     0.0000    46.0000 </r>
       <r>   -20.1966     0.0000    46.0000 </r>
       <r>   -20.0927     0.0000    46.0000 </r>
       <r>   -19.9888     0.0000    46.0000 </r>
       <r>   -19.8849     0.0000    46.0000 </r>
       <r>   -19.7810     0.0000    46.0000 </r>
       <r>   -19.6771     0.0243    46.0025 </r>
       <r>   -19.5732    16.6773    49.9994 </r>
       <r>   -19.4693     8.9666    50.9316 </r>
       <r>   -19.3654     5.5083    51.7723 </r>
       <r>   -19.2616     0.0000    54.0000 </r>
       <r>   -19.1577     0.0000    54.0000 </r>
       <r>   -19.0538     5.1332    54.5333 </r>
       <r>   -18.9499     6.1352    55.3041 </r>
       <r>   -18.8460     1.6058    56.0002 </r>
       <r>   -18.7421    11.6758    57.4131 </r>
       <r>   -18.6382    22.1379    60.0000 </r>
       <r>   -18.5343     0.0000    60.0000 </r>
       <r>   -18.4304     0.0000    60.0000 </r>
       <r>   -18.3265     0.0000    60.0000 </r>
       <r>   -18.2226     0.0000    60.0000 </r>
       <r>   -18.1187     0.0000    60.0000 </r>
       <r>   -18.0148     0.0000    60.0000 </r>
       <r>   -17.9109     0.0000    60.0000 </r>
       <r>   -17.8070    51.2716    65.3268 </r>
       <r>   -17.7032     0.0000    66.0000 </r>
       <r>   -17.5993     0.0000    66.0000 </r>
       <r>   -17.4954     0.0000    66.0000 </r>
       <r>   -17.3915     0.0000    66.0000 </r>
       <r>   -17.2876     0.0000    66.0000 </r>
       <r>   -17.1837     2.2578    66.2346 </r>
       <r>   -17.0798    35.2175    70.6923 </r>
       <r>   -16.9759     0.0000    72.0000 </r>
       <r>   -16.8720     0.0000    72.0000 </r>
       <r>   -16.7681     0.0000    72.0000 </r>
       <r>   -16.6642     0.0000    72.0000 </r>
       <r>   -16.5603     0.0000    72.0000 </r>
       <r>   -16.4564     0.0000    72.0000 </r>
       <r>   -16.3525     0.0000    72.0000 </r>
       <r>   -16.2486     0.0000    72.0000 </r>
       <r>   -16.1447    26.7592    74.7801 </r>
       <r>   -16.0409     2.8930    76.0006 </r>
       <r>   -15.9370    15.7207    78.0000 </r>
       <r>   -15.8331     0.0000    78.0000 </r>
       <r>   -15.7292    46.7300    82.8549 </r>
       <r>   -15.6253     5.0004    83.7528 </r>
       <r>   -15.5214     0.0000    84.0000 </r>
       <r>   -15.4175    23.4899    86.4405 </r>
       <r>   -15.3136     3.2738    86.9068 </r>
       <r>   -15.2097     8.9834    88.0000 </r>
       <r>   -15.1058     0.0000    88.0000 </r>
       <r>   -15.0019    10.6266    89.1040 </r>
       <r>   -14.8980     5.7539    89.8645 </r>
       <r>   -14.7941     0.0000    92.0000 </r>
       <r>   -14.6902    14.4241    93.4986 </r>
       <r>   -14.5863     0.0000    94.0000 </r>
       <r>   -14.4824     0.0000    94.0000 </r>
       <r>   -14.3786    19.2505    96.0000 </r>
       <r>   -14.2747     0.0000    96.0000 </r>
       <r>   -14.1708     0.0000    96.0000 </r>
       <r>   -14.0669     0.0000    96.0000 </r>
       <r>   -13.9630     0.0000    96.0000 </r>
       <r>   -13.8591    52.9740   101.5037 </r>
       <r>   -13.7552     0.0000   102.0000 </r>
       <r>   -13.6513     3.4151   102.3548 </r>
       <r>   -13.5474    38.5009   110.0000 </r>
       <r>   -13.4435     0.0000   110.0000 </r>
       <r>   -13.3396     0.0000   110.0000 </r>
       <r>   -13.2357    18.9036   111.9640 </r>
       <r>   -13.1318     0.0000   112.0000 </r>
       <r>   -13.0279    19.2504   114.0000 </r>
       <r>   -12.9240     0.0000   114.0000 </r>
       <r>   -12.8202     0.0000   114.0000 </r>
       <r>   -12.7163    13.0633   115.3572 </r>
       <r>   -12.6124    12.6527   117.3145 </r>
       <r>   -12.5085    21.4924   120.0000 </r>
       <r>   -12.4046     0.0000   120.0000 </r>
       <r>   -12.3007     0.0999   120.0104 </r>
       <r>   -12.1968    31.8865   124.4462 </r>
       <r>   -12.0929     4.4909   126.0000 </r>
       <r>   -11.9890    19.2505   128.0000 </r>
       <r>   -11.8851     0.0000   128.0000 </r>
       <r>   -11.7812    19.2505   130.0000 </r>
       <r>   -11.6773    57.6975   135.9944 </r>
       <r>   -11.5734     0.0000   136.0000 </r>
       <r>   -11.4695     0.0000   136.0000 </r>
       <r>   -11.3656    57.5630   141.9804 </r>
       <r>   -11.2617     0.2111   142.0219 </r>
       <r>   -11.1579    41.7089   148.0000 </r>
       <r>   -11.0540     0.0000   148.0000 </r>
       <r>   -10.9501     0.0000   148.0000 </r>
       <r>   -10.8462     0.1539   148.0160 </r>
       <r>   -10.7423    22.8405   152.3730 </r>
       <r>   -10.6384    57.2232   159.9451 </r>
       <r>   -10.5345    18.9411   161.9679 </r>
       <r>   -10.4306    27.5700   164.8643 </r>
       <r>   -10.3267    27.6684   168.8746 </r>
       <r>   -10.2228    19.2505   172.0000 </r>
       <r>   -10.1189     3.1248   172.3246 </r>
       <r>   -10.0150    50.9964   177.9982 </r>
       <r>    -9.9111    25.2752   180.6259 </r>
       <r>    -9.8072     0.0267   184.0028 </r>
       <r>    -9.7033    48.3189   189.9534 </r>
       <r>    -9.5994     0.0000   190.0000 </r>
       <r>    -9.4956     0.0000   190.0000 </r>
       <r>    -9.3917     0.0000   190.0000 </r>
       <r>    -9.2878     3.6773   190.3821 </r>
       <r>    -9.1839     3.9683   190.9456 </r>
       <r>    -9.0800     8.6626   192.0000 </r>
       <r>    -8.9761    10.5750   193.0987 </r>
       <r>    -8.8722    40.2688   197.4504 </r>
       <r>    -8.7683    23.2589   199.9831 </r>
       <r>    -8.6644     0.0000   202.0000 </r>
       <r>    -8.5605    16.3459   203.6982 </r>
       <r>    -8.4566    33.6620   207.9973 </r>
       <r>    -8.3527    82.3753   216.5583 </r>
       <r>    -8.2488    12.5926   218.1083 </r>
       <r>    -8.1449    13.0639   219.9573 </r>
       <r>    -8.0410     0.0000   220.0000 </r>
       <r>    -7.9371     0.0000   220.0000 </r>
       <r>    -7.8333     0.0000   220.0000 </r>
       <r>    -7.7294     0.0000   220.0000 </r>
       <r>    -7.6255     0.0000   220.0000 </r>
       <r>    -7.5216     0.0000   220.0000 </r>
       <r>    -7.4177     0.0000   220.0000 </r>
       <r>    -7.3138     0.0000   220.0000 </r>
       <r>    -7.2099     0.0000   220.0000 </r>
       <r>    -7.1060     1.5101   220.1569 </r>
       <r>    -7.0021    47.2199   229.6060 </r>
       <r>    -6.8982    17.3250   232.0000 </r>
       <r>    -6.7943    38.4419   235.9939 </r>
       <r>    -6.6904    19.8076   238.0579 </r>
       <r>    -6.5865    38.2676   245.9758 </r>
       <r>    -6.4826     0.0000   246.0000 </r>
       <r>    -6.3787     5.8347   246.6062 </r>
       <r>    -6.2749    38.0988   251.9582 </r>
       <r>    -6.1710     0.0000   252.0000 </r>
       <r>    -6.0671     0.0000   252.0000 </r>
       <r>    -5.9632     0.0000   252.0000 </r>
       <r>    -5.8593    19.2502   254.0000 </r>
       <r>    -5.7554    25.7887   256.6793 </r>
       <r>    -5.6515     0.0000   258.0000 </r>
       <r>    -5.5476     0.0000   258.0000 </r>
       <r>    -5.4437     3.6173   258.3758 </r>
       <r>    -5.3398    11.7858   260.0578 </r>
       <r>    -5.2359    26.6295   264.0000 </r>
       <r>    -5.1320     0.0000   264.0000 </r>
       <r>    -5.0281    57.7514   270.0000 </r>
       <r>    -4.9242     0.0000   270.0000 </r>
       <r>    -4.8203     0.0000   270.0000 </r>
       <r>    -4.7164     0.0000   270.0000 </r>
       <r>    -4.6126     0.0000   270.0000 </r>
       <r>    -4.5087     0.0000   270.0000 </r>
       <r>    -4.4048     0.0000   270.0000 </r>
       <r>    -4.3009     0.0000   270.0000 </r>
       <r>    -4.1970     0.0000   270.0000 </r>
       <r>    -4.0931     0.0000   270.0000 </r>
       <r>    -3.9892     0.0000   270.0000 </r>
       <r>    -3.8853     0.0000   270.0000 </r>
       <r>    -3.7814     0.0000   270.0000 </r>
       <r>    -3.6775     0.0000   270.0000 </r>
       <r>    -3.5736     0.0000   270.0000 </r>
       <r>    -3.4697     0.0000   270.0000 </r>
       <r>    -3.3658     0.0000   270.0000 </r>
       <r>    -3.2619     0.0000   270.0000 </r>
       <r>    -3.1580     0.0000   270.0000 </r>
       <r>    -3.0541     0.0000   270.0000 </r>
       <r>    -2.9503     0.0000   270.0000 </r>
       <r>    -2.8464     0.0000   270.0000 </r>
       <r>    -2.7425     0.0001   270.0000 </r>
       <r>    -2.6386    38.4891   273.9988 </r>
       <r>    -2.5347     0.8556   274.0889 </r>
       <r>    -2.4308     5.4496   275.4995 </r>
       <r>    -2.3269    22.7797   278.0000 </r>
       <r>    -2.2230     0.0000   278.0000 </r>
       <r>    -2.1191     3.2718   278.3399 </r>
       <r>    -2.0152     3.3713   278.7836 </r>
       <r>    -1.9113     9.8936   279.8946 </r>
       <r>    -1.8074     3.0401   280.3158 </r>
       <r>    -1.7035    21.1415   283.1631 </r>
       <r>    -1.5996     0.0000   284.0000 </r>
       <r>    -1.4957    19.2447   285.9994 </r>
       <r>    -1.3918     0.0000   286.0000 </r>
       <r>    -1.2880    11.3924   287.1836 </r>
       <r>    -1.1841     3.1904   287.6315 </r>
       <r>    -1.0802     2.5667   288.0000 </r>
       <r>    -0.9763     0.0000   288.0000 </r>
       <r>    -0.8724    22.6304   290.3512 </r>
       <r>    -0.7685     2.0611   290.6475 </r>
       <r>    -0.6646     2.1247   290.9541 </r>
       <r>    -0.5607     7.2230   291.7838 </r>
       <r>    -0.4568    25.3476   294.5668 </r>
       <r>    -0.3529     4.8153   295.4669 </r>
       <r>    -0.2490    15.9689   297.3924 </r>
       <r>    -0.1451    28.2405   300.5007 </r>
       <r>    -0.0412    11.2294   302.0000 </r>
       <r>     0.0627    38.5009   306.0000 </r>
       <r>     0.1666     0.0000   306.0000 </r>
       <r>     0.2704    14.6218   307.5191 </r>
       <r>     0.3743    24.0581   310.5995 </r>
       <r>     0.4782     0.0000   312.0000 </r>
       <r>     0.5821    51.4986   317.3504 </r>
       <r>     0.6860    30.9837   322.0191 </r>
       <r>     0.7899    51.6062   330.5616 </r>
       <r>     0.8938    47.9691   336.0505 </r>
       <r>     0.9977    30.9203   341.2124 </r>
       <r>     1.1016    62.6767   349.9118 </r>
       <r>     1.2055     7.0581   352.0000 </r>
       <r>     1.3094     0.0000   352.0000 </r>
       <r>     1.4133     0.0000   352.0000 </r>
       <r>     1.5172     0.0000   352.0000 </r>
       <r>     1.6211     0.0000   352.0000 </r>
       <r>     1.7250     0.0000   352.0000 </r>
       <r>     1.8289     0.0000   352.0000 </r>
       <r>     1.9327     0.0000   352.0000 </r>
       <r>     2.0366     0.0000   352.0000 </r>
       <r>     2.1405     0.0000   352.0000 </r>
       <r>     2.2444     0.0000   352.0000 </r>
       <r>     2.3483     0.0000   352.0000 </r>
       <r>     2.4522     0.0000   352.0000 </r>
       <r>     2.5561     0.0000   352.0000 </r>
      </set>
     </set>
    </array>
   </total>
  </dos>
 </calculation>
 <structure name="finalpos" >
  <crystal>
   <varray name="basis" >
    <v>      22.31181396       0.02474511       0.00000000 </v>
    <v>     -11.13441859      19.31348939       0.00000000 </v>
    <v>       0.00000000       0.00000000      20.00000000 </v>
   </varray>
   <i name="volume">   8623.89009111 </i>
   <varray name="rec_basis" >
    <v>       0.04479067       0.02582226       0.00000000 </v>
    <v>      -0.00005739       0.05174420       0.00000000 </v>
    <v>       0.00000000       0.00000000       0.05000000 </v>
   </varray>
  </crystal>
  <varray name="positions" >
   <v>       0.50216185       0.95561042       0.54364530 </v>
   <v>       0.55944505       0.13877774       0.52779407 </v>
   <v>       0.44541096       0.49159567       0.54124029 </v>
   <v>       0.57088947       0.43381014       0.52556199 </v>
   <v>       0.03731227       0.54805140       0.54212219 </v>
   <v>       0.85436747       0.42230929       0.52701562 </v>
   <v>       0.46202960       0.04151206       0.47970934 </v>
   <v>       0.40774247       0.85777399       0.49516123 </v>
   <v>       0.56985275       0.52994453       0.47538456 </v>
   <v>       0.44082185       0.58489675       0.49133204 </v>
   <v>       0.95144952       0.42280017       0.47746711 </v>
   <v>       0.13503949       0.55237812       0.49212811 </v>
   <v>       0.49245902       0.82788007       0.50741282 </v>
   <v>       0.32673018       0.49988396       0.50409922 </v>
   <v>       0.16466135       0.66654149       0.50752988 </v>
   <v>       0.48727558       0.18151500       0.49956903 </v>
   <v>       0.68519393       0.50585365       0.49602548 </v>
   <v>       0.81207546       0.30738228       0.49937005 </v>
   <v>       0.59504001       0.05363489       0.58926107 </v>
   <v>       0.45144869       0.39963030       0.58843740 </v>
   <v>       0.93964982       0.54208087       0.58968419 </v>
   <v>       0.28318157       0.74697320       0.49941558 </v>
   <v>       0.45429564       0.70922798       0.49817411 </v>
   <v>       0.24585219       0.53820971       0.49671270 </v>
   <v>       0.68938272       0.23666991       0.51498534 </v>
   <v>       0.53928091       0.30416075       0.51293512 </v>
   <v>       0.75646853       0.45409243       0.51253039 </v>
   <v>       0.66526383       0.04197066       0.64376586 </v>
   <v>       0.57718266       0.97325650       0.65529612 </v>
   <v>       0.62213979       0.97623242       0.58035765 </v>
   <v>       0.60541066       0.15235771       0.55007229 </v>
   <v>       0.37113192       0.33100671       0.64538059 </v>
   <v>       0.39063708       0.41945340       0.65498267 </v>
   <v>       0.34689592       0.37245134       0.58151950 </v>
   <v>       0.53899841       0.38829980       0.54881831 </v>
   <v>       0.95150229       0.62246836       0.64686900 </v>
   <v>       0.02040682       0.60284238       0.65592668 </v>
   <v>       0.01673915       0.64670096       0.58265027 </v>
   <v>       0.84072472       0.45450357       0.54976921 </v>
   <v>       0.38152393       0.95185281       0.43856451 </v>
   <v>       0.35850602       0.83928219       0.47909346 </v>
   <v>       0.55966945       0.60937853       0.43259281 </v>
   <v>       0.47126008       0.63421057       0.47530148 </v>
   <v>       0.04085866       0.43243775       0.43502161 </v>
   <v>       0.15376401       0.52196468       0.47540856 </v>
   <v>       0.35113922       0.61683132       0.49469990 </v>
   <v>       0.28016970       0.59418408       0.49481003 </v>
   <v>       0.25655514       0.64160175       0.49549578 </v>
   <v>       0.30479225       0.71259401       0.49632082 </v>
   <v>       0.39840105       0.68775006       0.49557483 </v>
   <v>       0.37070989       0.56123567       0.49712321 </v>
   <v>       0.18161902       0.62234714       0.49894115 </v>
   <v>       0.64769517       0.38647081       0.51621313 </v>
   <v>       0.71612636       0.39987220       0.51628417 </v>
   <v>       0.73037480       0.34556190       0.51729915 </v>
   <v>       0.67542348       0.27710529       0.51759631 </v>
   <v>       0.59352068       0.31802074       0.51647058 </v>
   <v>       0.63765209       0.44827867       0.51131735 </v>
   <v>       0.80212075       0.35534782       0.51344838 </v>
   <v>       0.51729963       0.06777743       0.51885326 </v>
   <v>       0.53730357       0.02323104       0.55084814 </v>
   <v>       0.61606435       0.00776758       0.61900467 </v>
   <v>       0.54174901       0.47567894       0.51587435 </v>
   <v>       0.47792461       0.45647709       0.54876272 </v>
   <v>       0.38543274       0.37955058       0.61947960 </v>
   <v>       0.92528132       0.45128725       0.51753966 </v>
   <v>       0.96984080       0.51540324       0.54999279 </v>
   <v>       0.98558196       0.60812766       0.62067388 </v>
   <v>       0.37568011       0.73611266       0.49621638 </v>
   <v>       0.43126823       0.81103815       0.50011431 </v>
   <v>       0.60697198       0.26293658       0.51745551 </v>
   <v>       0.54500098       0.19122718       0.51380537 </v>
   <v>       0.42654112       0.97273805       0.47161461 </v>
   <v>       0.44668946       0.92966255       0.50332806 </v>
   <v>       0.53635989       0.56526897       0.46681910 </v>
   <v>       0.47396463       0.54604745       0.49957270 </v>
   <v>       0.02011832       0.45624452       0.46876419 </v>
   <v>       0.06321147       0.51916499       0.50079677 </v>
  </varray>
 </structure>
</modeling>
