<?xml version="1.0" encoding="ISO-8859-1"?>
<modeling>
 <generator>
  <i name="program" type="string">vasp </i>
  <i name="version" type="string">5.4.4.18Apr17-6-g9f103f2a35  </i>
  <i name="subversion" type="string">(build Jun 07 2020 16:50:00) complex            parallel </i>
  <i name="platform" type="string">LinuxIFC </i>
  <i name="date" type="string">2023 02 14 </i>
  <i name="time" type="string">04:11:39 </i>
 </generator>
 <incar>
  <i type="string" name="SYSTEM">Simulation for cell shape cell volume r</i>
  <i type="int" name="ISTART">     1</i>
  <i type="string" name="PREC">high</i>
  <i type="string" name="ALGO">48</i>
  <i type="int" name="ICHARG">    11</i>
  <i type="int" name="NELM">   200</i>
  <i type="int" name="IBRION">    -1</i>
  <i name="EDIFF">      0.00001000</i>
  <i name="EDIFFG">     -0.01000000</i>
  <i type="int" name="NSW">     0</i>
  <i type="int" name="ISIF">     2</i>
  <i name="ENCUT">    500.00000000</i>
  <i name="POTIM">      0.30000000</i>
  <i type="string" name="LREAL">A</i>
  <i type="int" name="ISMEAR">     0</i>
  <i name="SIGMA">      0.01000000</i>
  <i type="int" name="NWRITE">     0</i>
  <i type="logical" name="LWAVE"> F  </i>
  <i type="logical" name="LCHARG"> F  </i>
  <v type="int" name="KPOINT_BSE">    -1     0     0     0</v>
  <i type="int" name="NELM">   200</i>
  <i type="string" name="GGA">PE</i>
 </incar>
 <structure name="primitive_cell" >
  <crystal>
   <varray name="basis" >
    <v>      37.61881377       0.05141020       0.00000000 </v>
    <v>     -18.73114436      32.57791494       0.00000000 </v>
    <v>       0.00000000       0.00000000      20.00000000 </v>
   </varray>
   <i name="volume">  24530.10974533 </i>
   <varray name="rec_basis" >
    <v>       0.02656157       0.01527196       0.00000000 </v>
    <v>      -0.00004192       0.03067154       0.00000000 </v>
    <v>       0.00000000       0.00000000       0.05000000 </v>
   </varray>
  </crystal>
  <varray name="positions" >
   <v>       0.48606505       0.40508326      -0.49523577 </v>
   <v>      -0.48096086       0.41753182      -0.49953314 </v>
   <v>      -0.45588345       0.45971801       0.48799153 </v>
   <v>      -0.46395191       0.39226777      -0.49315019 </v>
   <v>      -0.48397273       0.35950181      -0.48413143 </v>
   <v>       0.48929654       0.47371950      -0.49053278 </v>
   <v>      -0.47367024       0.48666468       0.48063559 </v>
   <v>      -0.41325386       0.47551399       0.48325815 </v>
   <v>      -0.42130397       0.40781571      -0.49807519 </v>
   <v>       0.47194683       0.49688726      -0.49172553 </v>
   <v>      -0.39635742       0.45026580       0.49014441 </v>
   <v>      -0.45402551      -0.47620450       0.44471120 </v>
   <v>      -0.39287831      -0.49171293       0.47529878 </v>
   <v>      -0.42576666      -0.46725251       0.41725816 </v>
   <v>      -0.40516845       0.37986383      -0.49156589 </v>
   <v>      -0.42851779       0.34744459      -0.48755985 </v>
   <v>       0.49066976      -0.46586284       0.47810498 </v>
   <v>      -0.47218876      -0.45212152       0.44330653 </v>
   <v>      -0.36321797       0.46376033       0.48616407 </v>
   <v>       0.41230003      -0.49254075      -0.48547151 </v>
   <v>      -0.36512948       0.39040763      -0.49018493 </v>
   <v>      -0.45849783      -0.42365277       0.41472978 </v>
   <v>       0.46996132      -0.44141574       0.48335457 </v>
   <v>      -0.34195124       0.42294845      -0.49263196 </v>
   <v>       0.42859236      -0.45981376      -0.49652814 </v>
   <v>      -0.40594936       0.30548052      -0.49009136 </v>
   <v>      -0.34830955       0.36286855      -0.48613702 </v>
   <v>       0.49088213      -0.39905999       0.47004568 </v>
   <v>      -0.47683728      -0.38340255       0.45595759 </v>
   <v>      -0.37268116       0.31980086      -0.48649678 </v>
   <v>       0.40908616      -0.43689641      -0.49050231 </v>
   <v>       0.37710630      -0.45225377      -0.47467450 </v>
   <v>      -0.30563616       0.38001659      -0.48272579 </v>
   <v>      -0.28651195       0.41336276      -0.48137699 </v>
   <v>       0.47126090      -0.37618106       0.47619077 </v>
   <v>      -0.41532164       0.24098040      -0.49038692 </v>
   <v>       0.42986338      -0.39437144       0.49583510 </v>
   <v>      -0.35540720       0.29425525      -0.48298523 </v>
   <v>      -0.38291052       0.25000187      -0.48622221 </v>
   <v>       0.48823904      -0.34327783       0.46596054 </v>
   <v>      -0.28709555       0.35541011      -0.47981460 </v>
   <v>      -0.45629087       0.17945531       0.49033346 </v>
   <v>      -0.31239800       0.31267022      -0.47870048 </v>
   <v>       0.41124487      -0.36854286      -0.49918427 </v>
   <v>      -0.22733063       0.42981503       0.47655675 </v>
   <v>       0.35014528      -0.41300056      -0.47600325 </v>
   <v>      -0.37263821       0.22021686      -0.48603295 </v>
   <v>      -0.44310406       0.15946022       0.49465709 </v>
   <v>      -0.29810326       0.29356169      -0.47622377 </v>
   <v>      -0.24257670       0.37312837      -0.47944347 </v>
   <v>       0.37172631      -0.38045654      -0.48470387 </v>
   <v>       0.43223346      -0.33609734       0.49015302 </v>
   <v>      -0.21537070       0.41107441       0.49808880 </v>
   <v>      -0.40082974       0.17631751      -0.49270986 </v>
   <v>      -0.34036791       0.22883056      -0.48105418 </v>
   <v>       0.49878946       0.10565561       0.47864418 </v>
   <v>      -0.23146333       0.35280477      -0.46196185 </v>
   <v>      -0.46859103       0.11750592       0.48732713 </v>
   <v>      -0.16464195       0.47864371       0.43093411 </v>
   <v>       0.35377205      -0.35381300      -0.48173260 </v>
   <v>      -0.17089808       0.43001462       0.49627828 </v>
   <v>       0.29242177      -0.40517011      -0.47766893 </v>
   <v>      -0.38571826       0.14875504      -0.48734790 </v>
   <v>      -0.14830703       0.46579618       0.45773580 </v>
   <v>       0.41095041      -0.29585082      -0.48253151 </v>
   <v>       0.31097478      -0.37177208      -0.47928601 </v>
   <v>      -0.45323231       0.09021033       0.49252253 </v>
   <v>       0.37757694      -0.31065198      -0.48188696 </v>
   <v>      -0.35309846       0.16096578      -0.47770984 </v>
   <v>       0.47387412       0.04813261       0.42117904 </v>
   <v>      -0.16506907       0.38760883      -0.43703448 </v>
   <v>      -0.41122937       0.10666925      -0.49414990 </v>
   <v>      -0.14876953       0.41472110      -0.46856687 </v>
   <v>       0.22975102      -0.42580781       0.49185198 </v>
   <v>       0.48255068       0.02862027       0.44887490 </v>
   <v>      -0.10586252       0.48489593       0.45318525 </v>
   <v>      -0.48042662       0.04565714       0.48497965 </v>
   <v>       0.29172988      -0.34776938      -0.47841986 </v>
   <v>      -0.08948163      -0.48716202       0.42351050 </v>
   <v>       0.35955243      -0.28575211      -0.48090987 </v>
   <v>      -0.39912465       0.08578099      -0.48950065 </v>
   <v>       0.16535339      -0.47749667       0.45595328 </v>
   <v>      -0.10637500       0.43398494      -0.47242115 </v>
   <v>       0.21911985      -0.40453527      -0.49387584 </v>
   <v>       0.41871468      -0.23052633      -0.47690311 </v>
   <v>      -0.08409450       0.46929029       0.48791365 </v>
   <v>       0.31646927      -0.30494964      -0.47836242 </v>
   <v>       0.24725930      -0.36540941      -0.47857563 </v>
   <v>       0.45821584      -0.01348861       0.44758985 </v>
   <v>      -0.46780245       0.02125343      -0.48603209 </v>
   <v>       0.42983298      -0.02796279       0.41886061 </v>
   <v>       0.38603887      -0.24126330      -0.48342475 </v>
   <v>      -0.08953164       0.42223214      -0.44445172 </v>
   <v>       0.15048419      -0.46084080       0.47466771 </v>
   <v>       0.17476713      -0.42180808      -0.49652263 </v>
   <v>       0.30160941      -0.28634950      -0.47620047 </v>
   <v>       0.23679387      -0.34356451      -0.46763128 </v>
   <v>       0.47163177      -0.03718761       0.48260839 </v>
   <v>      -0.49117728      -0.01912093      -0.48719484 </v>
   <v>      -0.03901117       0.48938250       0.48404282 </v>
   <v>      -0.03234772      -0.48404103       0.38482735 </v>
   <v>       0.45766087      -0.16480249      -0.47270277 </v>
   <v>       0.08999600       0.49135496       0.44667475 </v>
   <v>       0.37387570      -0.21346554      -0.49531625 </v>
   <v>       0.10813403      -0.47837021       0.46918872 </v>
   <v>       0.38892492      -0.08615870       0.46295232 </v>
   <v>      -0.01672607      -0.48723334       0.42839148 </v>
   <v>       0.34128396      -0.22464456       0.49594356 </v>
   <v>       0.15458683      -0.40132542      -0.47204803 </v>
   <v>      -0.01993551       0.48375667      -0.46298992 </v>
   <v>       0.17212558      -0.37148232      -0.44792692 </v>
   <v>       0.44697326      -0.08221349       0.48791424 </v>
   <v>       0.44232323      -0.14786987      -0.48746206 </v>
   <v>       0.40451980      -0.10313161       0.47589805 </v>
   <v>       0.39971143      -0.16911906      -0.49996013 </v>
   <v>       0.08855364      -0.45745629       0.49290833 </v>
   <v>       0.11230757      -0.41880362      -0.47732408 </v>
   <v>       0.02547218      -0.46927568       0.43006351 </v>
   <v>       0.02061515      -0.49926966      -0.46157604 </v>
   <v>       0.49814154      -0.08949443      -0.48312344 </v>
   <v>       0.46534639      -0.10555305      -0.49327726 </v>
   <v>       0.38151784      -0.14553411       0.48192340 </v>
   <v>       0.04458755      -0.45089838       0.38852189 </v>
   <v>       0.04338129      -0.47583198       0.48688890 </v>
   <v>       0.34854686      -0.16107429       0.47270749 </v>
   <v>       0.09724958      -0.40257998      -0.45761560 </v>
  </varray>
 </structure>
 <varray name="primitive_index" >
  <v type="int" >        1 </v>
  <v type="int" >       58 </v>
  <v type="int" >       55 </v>
  <v type="int" >       57 </v>
  <v type="int" >        2 </v>
  <v type="int" >       51 </v>
  <v type="int" >       88 </v>
  <v type="int" >       93 </v>
  <v type="int" >       56 </v>
  <v type="int" >       52 </v>
  <v type="int" >       94 </v>
  <v type="int" >       87 </v>
  <v type="int" >       25 </v>
  <v type="int" >       21 </v>
  <v type="int" >       59 </v>
  <v type="int" >        8 </v>
  <v type="int" >       85 </v>
  <v type="int" >       86 </v>
  <v type="int" >       26 </v>
  <v type="int" >       37 </v>
  <v type="int" >       95 </v>
  <v type="int" >       22 </v>
  <v type="int" >       68 </v>
  <v type="int" >       35 </v>
  <v type="int" >      110 </v>
  <v type="int" >       28 </v>
  <v type="int" >       96 </v>
  <v type="int" >       71 </v>
  <v type="int" >       10 </v>
  <v type="int" >       97 </v>
  <v type="int" >      111 </v>
  <v type="int" >       38 </v>
  <v type="int" >      101 </v>
  <v type="int" >       27 </v>
  <v type="int" >       70 </v>
  <v type="int" >       36 </v>
  <v type="int" >       69 </v>
  <v type="int" >       98 </v>
  <v type="int" >      106 </v>
  <v type="int" >       11 </v>
  <v type="int" >      100 </v>
  <v type="int" >        3 </v>
  <v type="int" >       99 </v>
  <v type="int" >       72 </v>
  <v type="int" >        7 </v>
  <v type="int" >       47 </v>
  <v type="int" >       64 </v>
  <v type="int" >       65 </v>
  <v type="int" >       29 </v>
  <v type="int" >      102 </v>
  <v type="int" >      112 </v>
  <v type="int" >       17 </v>
  <v type="int" >       60 </v>
  <v type="int" >      107 </v>
  <v type="int" >        9 </v>
  <v type="int" >        6 </v>
  <v type="int" >       34 </v>
  <v type="int" >       67 </v>
  <v type="int" >        4 </v>
  <v type="int" >      113 </v>
  <v type="int" >      103 </v>
  <v type="int" >       39 </v>
  <v type="int" >      108 </v>
  <v type="int" >       61 </v>
  <v type="int" >       40 </v>
  <v type="int" >      118 </v>
  <v type="int" >       66 </v>
  <v type="int" >      114 </v>
  <v type="int" >       33 </v>
  <v type="int" >       23 </v>
  <v type="int" >       31 </v>
  <v type="int" >      109 </v>
  <v type="int" >      104 </v>
  <v type="int" >       16 </v>
  <v type="int" >       91 </v>
  <v type="int" >       63 </v>
  <v type="int" >       92 </v>
  <v type="int" >      117 </v>
  <v type="int" >        5 </v>
  <v type="int" >      115 </v>
  <v type="int" >       32 </v>
  <v type="int" >       13 </v>
  <v type="int" >      105 </v>
  <v type="int" >       73 </v>
  <v type="int" >       48 </v>
  <v type="int" >       62 </v>
  <v type="int" >      116 </v>
  <v type="int" >      119 </v>
  <v type="int" >       90 </v>
  <v type="int" >       53 </v>
  <v type="int" >       24 </v>
  <v type="int" >      123 </v>
  <v type="int" >       30 </v>
  <v type="int" >       74 </v>
  <v type="int" >      120 </v>
  <v type="int" >       41 </v>
  <v type="int" >       46 </v>
  <v type="int" >       89 </v>
  <v type="int" >       54 </v>
  <v type="int" >       84 </v>
  <v type="int" >       19 </v>
  <v type="int" >       12 </v>
  <v type="int" >       14 </v>
  <v type="int" >       77 </v>
  <v type="int" >       76 </v>
  <v type="int" >       44 </v>
  <v type="int" >       83 </v>
  <v type="int" >       18 </v>
  <v type="int" >      121 </v>
  <v type="int" >       49 </v>
  <v type="int" >       43 </v>
  <v type="int" >       79 </v>
  <v type="int" >       78 </v>
  <v type="int" >      126 </v>
  <v type="int" >      124 </v>
  <v type="int" >       75 </v>
  <v type="int" >      122 </v>
  <v type="int" >       82 </v>
  <v type="int" >       50 </v>
  <v type="int" >       15 </v>
  <v type="int" >       80 </v>
  <v type="int" >      125 </v>
  <v type="int" >       20 </v>
  <v type="int" >       81 </v>
  <v type="int" >       45 </v>
  <v type="int" >       42 </v>
 </varray>
 <kpoints>
  <generation param="listgenerated">
   <i name="divisions" type="int">      20 </i>
   <v>       0.00000000       0.00000000       0.00000000 </v>
   <v>       0.50000000       0.00000000       0.00000000 </v>
   <v>       0.33333333       0.33333333       0.00000000 </v>
   <v>       0.00000000       0.00000000       0.00000000 </v>
  </generation>
  <varray name="kpointlist" >
   <v>       0.00000000       0.00000000       0.00000000 </v>
   <v>       0.02631579       0.00000000       0.00000000 </v>
   <v>       0.05263158       0.00000000       0.00000000 </v>
   <v>       0.07894737       0.00000000       0.00000000 </v>
   <v>       0.10526316       0.00000000       0.00000000 </v>
   <v>       0.13157895       0.00000000       0.00000000 </v>
   <v>       0.15789474       0.00000000       0.00000000 </v>
   <v>       0.18421053       0.00000000       0.00000000 </v>
   <v>       0.21052632       0.00000000       0.00000000 </v>
   <v>       0.23684211       0.00000000       0.00000000 </v>
   <v>       0.26315789       0.00000000       0.00000000 </v>
   <v>       0.28947368       0.00000000       0.00000000 </v>
   <v>       0.31578947       0.00000000       0.00000000 </v>
   <v>       0.34210526       0.00000000       0.00000000 </v>
   <v>       0.36842105       0.00000000       0.00000000 </v>
   <v>       0.39473684       0.00000000       0.00000000 </v>
   <v>       0.42105263       0.00000000       0.00000000 </v>
   <v>       0.44736842       0.00000000       0.00000000 </v>
   <v>       0.47368421       0.00000000       0.00000000 </v>
   <v>       0.50000000       0.00000000       0.00000000 </v>
   <v>       0.50000000       0.00000000       0.00000000 </v>
   <v>       0.49122807       0.01754386       0.00000000 </v>
   <v>       0.48245614       0.03508772       0.00000000 </v>
   <v>       0.47368421       0.05263158       0.00000000 </v>
   <v>       0.46491228       0.07017544       0.00000000 </v>
   <v>       0.45614035       0.08771930       0.00000000 </v>
   <v>       0.44736842       0.10526316       0.00000000 </v>
   <v>       0.43859649       0.12280702       0.00000000 </v>
   <v>       0.42982456       0.14035088       0.00000000 </v>
   <v>       0.42105263       0.15789474       0.00000000 </v>
   <v>       0.41228070       0.17543860       0.00000000 </v>
   <v>       0.40350877       0.19298246       0.00000000 </v>
   <v>       0.39473684       0.21052632       0.00000000 </v>
   <v>       0.38596491       0.22807018       0.00000000 </v>
   <v>       0.37719298       0.24561404       0.00000000 </v>
   <v>       0.36842105       0.26315789       0.00000000 </v>
   <v>       0.35964912       0.28070175       0.00000000 </v>
   <v>       0.35087719       0.29824561       0.00000000 </v>
   <v>       0.34210526       0.31578947       0.00000000 </v>
   <v>       0.33333333       0.33333333       0.00000000 </v>
   <v>       0.33333333       0.33333333       0.00000000 </v>
   <v>       0.31578947       0.31578947       0.00000000 </v>
   <v>       0.29824561       0.29824561       0.00000000 </v>
   <v>       0.28070175       0.28070175       0.00000000 </v>
   <v>       0.26315789       0.26315789       0.00000000 </v>
   <v>       0.24561404       0.24561404       0.00000000 </v>
   <v>       0.22807018       0.22807018       0.00000000 </v>
   <v>       0.21052632       0.21052632       0.00000000 </v>
   <v>       0.19298246       0.19298246       0.00000000 </v>
   <v>       0.17543860       0.17543860       0.00000000 </v>
   <v>       0.15789474       0.15789474       0.00000000 </v>
   <v>       0.14035088       0.14035088       0.00000000 </v>
   <v>       0.12280702       0.12280702       0.00000000 </v>
   <v>       0.10526316       0.10526316       0.00000000 </v>
   <v>       0.08771930       0.08771930       0.00000000 </v>
   <v>       0.07017544       0.07017544       0.00000000 </v>
   <v>       0.05263158       0.05263158       0.00000000 </v>
   <v>       0.03508772       0.03508772       0.00000000 </v>
   <v>       0.01754386       0.01754386       0.00000000 </v>
   <v>       0.00000000       0.00000000       0.00000000 </v>
  </varray>
  <varray name="weights" >
   <v>       0.01666667 </v>
   <v>       0.01666667 </v>
   <v>       0.01666667 </v>
   <v>       0.01666667 </v>
   <v>       0.01666667 </v>
   <v>       0.01666667 </v>
   <v>       0.01666667 </v>
   <v>       0.01666667 </v>
   <v>       0.01666667 </v>
   <v>       0.01666667 </v>
   <v>       0.01666667 </v>
   <v>       0.01666667 </v>
   <v>       0.01666667 </v>
   <v>       0.01666667 </v>
   <v>       0.01666667 </v>
   <v>       0.01666667 </v>
   <v>       0.01666667 </v>
   <v>       0.01666667 </v>
   <v>       0.01666667 </v>
   <v>       0.01666667 </v>
   <v>       0.01666667 </v>
   <v>       0.01666667 </v>
   <v>       0.01666667 </v>
   <v>       0.01666667 </v>
   <v>       0.01666667 </v>
   <v>       0.01666667 </v>
   <v>       0.01666667 </v>
   <v>       0.01666667 </v>
   <v>       0.01666667 </v>
   <v>       0.01666667 </v>
   <v>       0.01666667 </v>
   <v>       0.01666667 </v>
   <v>       0.01666667 </v>
   <v>       0.01666667 </v>
   <v>       0.01666667 </v>
   <v>       0.01666667 </v>
   <v>       0.01666667 </v>
   <v>       0.01666667 </v>
   <v>       0.01666667 </v>
   <v>       0.01666667 </v>
   <v>       0.01666667 </v>
   <v>       0.01666667 </v>
   <v>       0.01666667 </v>
   <v>       0.01666667 </v>
   <v>       0.01666667 </v>
   <v>       0.01666667 </v>
   <v>       0.01666667 </v>
   <v>       0.01666667 </v>
   <v>       0.01666667 </v>
   <v>       0.01666667 </v>
   <v>       0.01666667 </v>
   <v>       0.01666667 </v>
   <v>       0.01666667 </v>
   <v>       0.01666667 </v>
   <v>       0.01666667 </v>
   <v>       0.01666667 </v>
   <v>       0.01666667 </v>
   <v>       0.01666667 </v>
   <v>       0.01666667 </v>
   <v>       0.01666667 </v>
  </varray>
 </kpoints>
 <parameters>
  <separator name="general" >
   <i type="string" name="SYSTEM">Simulation for cell shape cell volume r</i>
   <i type="logical" name="LCOMPAT"> F  </i>
  </separator>
  <separator name="electronic" >
   <i type="string" name="PREC">high</i>
   <i name="ENMAX">    500.00000000</i>
   <i name="ENAUG">    644.87300000</i>
   <i name="EDIFF">      0.00001000</i>
   <i type="int" name="IALGO">    38</i>
   <i type="int" name="IWAVPR">    10</i>
   <i type="int" name="NBANDS">   256</i>
   <i name="NELECT">    366.00000000</i>
   <i type="int" name="TURBO">     0</i>
   <i type="int" name="IRESTART">     0</i>
   <i type="int" name="NREBOOT">     0</i>
   <i type="int" name="NMIN">     0</i>
   <i name="EREF">      0.00000000</i>
   <separator name="electronic smearing" >
    <i type="int" name="ISMEAR">     0</i>
    <i name="SIGMA">      0.01000000</i>
    <i name="KSPACING">      0.50000000</i>
    <i type="logical" name="KGAMMA"> T  </i>
   </separator>
   <separator name="electronic projectors" >
    <i type="logical" name="LREAL"> T  </i>
    <v name="ROPT">     -0.00040000     -0.00040000     -0.00040000</v>
    <i type="int" name="LMAXPAW">  -100</i>
    <i type="int" name="LMAXMIX">     2</i>
    <i type="logical" name="NLSPLINE"> F  </i>
   </separator>
   <separator name="electronic startup" >
    <i type="int" name="ISTART">     1</i>
    <i type="int" name="ICHARG">    11</i>
    <i type="int" name="INIWAV">     1</i>
   </separator>
   <separator name="electronic spin" >
    <i type="int" name="ISPIN">     1</i>
    <i type="logical" name="LNONCOLLINEAR"> F  </i>
    <v name="MAGMOM">      1.00000000      1.00000000      1.00000000      1.00000000      1.00000000      1.00000000      1.00000000      1.00000000      1.00000000      1.00000000      1.00000000      1.00000000      1.00000000      1.00000000      1.00000000      1.00000000      1.00000000      1.00000000      1.00000000      1.00000000
      1.00000000      1.00000000      1.00000000      1.00000000      1.00000000      1.00000000      1.00000000      1.00000000      1.00000000      1.00000000      1.00000000      1.00000000      1.00000000      1.00000000      1.00000000      1.00000000      1.00000000      1.00000000      1.00000000      1.00000000
      1.00000000      1.00000000      1.00000000      1.00000000      1.00000000      1.00000000      1.00000000      1.00000000      1.00000000      1.00000000      1.00000000      1.00000000      1.00000000      1.00000000      1.00000000      1.00000000      1.00000000      1.00000000      1.00000000      1.00000000
      1.00000000      1.00000000      1.00000000      1.00000000      1.00000000      1.00000000      1.00000000      1.00000000      1.00000000      1.00000000      1.00000000      1.00000000      1.00000000      1.00000000      1.00000000      1.00000000      1.00000000      1.00000000      1.00000000      1.00000000
      1.00000000      1.00000000      1.00000000      1.00000000      1.00000000      1.00000000      1.00000000      1.00000000      1.00000000      1.00000000      1.00000000      1.00000000      1.00000000      1.00000000      1.00000000      1.00000000      1.00000000      1.00000000      1.00000000      1.00000000
      1.00000000      1.00000000      1.00000000      1.00000000      1.00000000      1.00000000      1.00000000      1.00000000      1.00000000      1.00000000      1.00000000      1.00000000      1.00000000      1.00000000      1.00000000      1.00000000      1.00000000      1.00000000      1.00000000      1.00000000
      1.00000000      1.00000000      1.00000000      1.00000000      1.00000000      1.00000000</v>
    <i name="NUPDOWN">     -1.00000000</i>
    <i type="logical" name="LSORBIT"> F  </i>
    <v name="SAXIS">      0.00000000      0.00000000      1.00000000</v>
    <i type="logical" name="LSPIRAL"> F  </i>
    <v name="QSPIRAL">      0.00000000      0.00000000      0.00000000</v>
    <i type="logical" name="LZEROZ"> F  </i>
   </separator>
   <separator name="electronic exchange-correlation" >
    <i type="logical" name="LASPH"> F  </i>
    <i type="logical" name="LMETAGGA"> F  </i>
   </separator>
   <separator name="electronic convergence" >
    <i type="int" name="NELM">   200</i>
    <i type="int" name="NELMDL">     0</i>
    <i type="int" name="NELMIN">     2</i>
    <i name="ENINI">    500.00000000</i>
    <separator name="electronic convergence detail" >
     <i type="logical" name="LDIAG"> T  </i>
     <i type="logical" name="LSUBROT"> F  </i>
     <i name="WEIMIN">      0.00000000</i>
     <i name="EBREAK">      0.00000001</i>
     <i name="DEPER">      0.30000000</i>
     <i type="int" name="NRMM">     4</i>
     <i name="TIME">      0.40000000</i>
    </separator>
   </separator>
   <separator name="electronic mixer" >
    <i name="AMIX">      0.40000000</i>
    <i name="BMIX">      1.00000000</i>
    <i name="AMIN">      0.10000000</i>
    <i name="AMIX_MAG">      1.60000000</i>
    <i name="BMIX_MAG">      1.00000000</i>
    <separator name="electronic mixer details" >
     <i type="int" name="IMIX">     4</i>
     <i type="logical" name="MIXFIRST"> F  </i>
     <i type="int" name="MAXMIX">   -45</i>
     <i name="WC">    100.00000000</i>
     <i type="int" name="INIMIX">     1</i>
     <i type="int" name="MIXPRE">     1</i>
     <i type="int" name="MREMOVE">     5</i>
    </separator>
   </separator>
   <separator name="electronic dipolcorrection" >
    <i type="logical" name="LDIPOL"> F  </i>
    <i type="logical" name="LMONO"> F  </i>
    <i type="int" name="IDIPOL">     0</i>
    <i name="EPSILON">      1.00000000</i>
    <v name="DIPOL">   -100.00000000   -100.00000000   -100.00000000</v>
    <i name="EFIELD">      0.00000000</i>
   </separator>
  </separator>
  <separator name="grids" >
   <i type="int" name="NGX">   280</i>
   <i type="int" name="NGY">   280</i>
   <i type="int" name="NGZ">   150</i>
   <i type="int" name="NGXF">   420</i>
   <i type="int" name="NGYF">   420</i>
   <i type="int" name="NGZF">   224</i>
   <i type="logical" name="ADDGRID"> F  </i>
  </separator>
  <separator name="ionic" >
   <i type="int" name="NSW">     0</i>
   <i type="int" name="IBRION">    -1</i>
   <i type="int" name="MDALGO">     0</i>
   <i type="int" name="ISIF">     2</i>
   <i name="PSTRESS">      0.00000000</i>
   <i name="EDIFFG">     -0.01000000</i>
   <i type="int" name="NFREE">     0</i>
   <i name="POTIM">      0.30000000</i>
   <i name="SMASS">     -3.00000000</i>
   <i name="SCALEE">      1.00000000</i>
  </separator>
  <separator name="ionic md" >
   <i name="TEBEG">      0.00010000</i>
   <i name="TEEND">      0.00010000</i>
   <i type="int" name="NBLOCK">     1</i>
   <i type="int" name="KBLOCK">     1</i>
   <i type="int" name="NPACO">   256</i>
   <i name="APACO">     16.00000000</i>
  </separator>
  <separator name="symmetry" >
   <i type="int" name="ISYM">     2</i>
   <i name="SYMPREC">      0.00001000</i>
  </separator>
  <separator name="dos" >
   <i type="int" name="LORBIT">     0</i>
   <v name="RWIGS">     -1.00000000     -1.00000000     -1.00000000</v>
   <i type="int" name="NEDOS">   301</i>
   <i name="EMIN">     10.00000000</i>
   <i name="EMAX">    -10.00000000</i>
   <i name="EFERMI">      0.00000000</i>
  </separator>
  <separator name="writing" >
   <i type="int" name="NWRITE">     0</i>
   <i type="logical" name="LWAVE"> F  </i>
   <i type="logical" name="LDOWNSAMPLE"> F  </i>
   <i type="logical" name="LCHARG"> F  </i>
   <i type="logical" name="LPARD"> F  </i>
   <i type="logical" name="LVTOT"> F  </i>
   <i type="logical" name="LVHAR"> F  </i>
   <i type="logical" name="LELF"> F  </i>
   <i type="logical" name="LOPTICS"> F  </i>
   <v name="STM">      0.00000000      0.00000000      0.00000000      0.00000000      0.00000000      0.00000000      0.00000000</v>
  </separator>
  <separator name="performance" >
   <i type="int" name="NPAR">    16</i>
   <i type="int" name="NSIM">     4</i>
   <i type="int" name="NBLK">    -1</i>
   <i type="logical" name="LPLANE"> T  </i>
   <i type="logical" name="LSCALAPACK"> T  </i>
   <i type="logical" name="LSCAAWARE"> F  </i>
   <i type="logical" name="LSCALU"> F  </i>
   <i type="logical" name="LASYNC"> F  </i>
   <i type="logical" name="LORBITALREAL"> F  </i>
  </separator>
  <separator name="miscellaneous" >
   <i type="int" name="IDIOT">     3</i>
   <i type="int" name="ISPECIAL">     0</i>
   <i type="logical" name="LMUSIC"> F  </i>
   <v name="POMASS">      1.00000000     14.00100000     12.01100000</v>
   <v name="DARWINR">      0.00000000      0.00000000      0.00000000</v>
   <v name="DARWINV">      1.00000000      1.00000000      1.00000000</v>
   <i type="logical" name="LCORR"> T  </i>
  </separator>
  <i type="logical" name="GGA_COMPAT"> T  </i>
  <i type="logical" name="LBERRY"> F  </i>
  <i type="int" name="ICORELEVEL">     0</i>
  <i type="logical" name="LDAU"> F  </i>
  <i type="int" name="I_CONSTRAINED_M">     0</i>
  <separator name="electronic exchange-correlation" >
   <i type="string" name="GGA">PE</i>
   <i type="int" name="VOSKOWN">     0</i>
   <i type="logical" name="LHFCALC"> F  </i>
   <i type="string" name="PRECFOCK"></i>
   <i type="logical" name="LSYMGRAD"> F  </i>
   <i type="logical" name="LHFONE"> F  </i>
   <i type="logical" name="LRHFCALC"> F  </i>
   <i type="logical" name="LTHOMAS"> F  </i>
   <i type="logical" name="LMODELHF"> F  </i>
   <i name="ENCUT4O">     -1.00000000</i>
   <i type="int" name="EXXOEP">     0</i>
   <i type="int" name="FOURORBIT">     0</i>
   <i name="AEXX">      0.00000000</i>
   <i name="HFALPHA">      0.00000000</i>
   <i name="MCALPHA">      0.00000000</i>
   <i name="ALDAX">      1.00000000</i>
   <i name="AGGAX">      1.00000000</i>
   <i name="ALDAC">      1.00000000</i>
   <i name="AGGAC">      1.00000000</i>
   <i type="int" name="NKREDX">     1</i>
   <i type="int" name="NKREDY">     1</i>
   <i type="int" name="NKREDZ">     1</i>
   <i type="logical" name="SHIFTRED"> F  </i>
   <i type="logical" name="ODDONLY"> F  </i>
   <i type="logical" name="EVENONLY"> F  </i>
   <i type="int" name="LMAXFOCK">     0</i>
   <i type="int" name="NMAXFOCKAE">     0</i>
   <i type="logical" name="LFOCKAEDFT"> F  </i>
   <i name="HFSCREEN">      0.00000000</i>
   <i name="HFSCREENC">      0.00000000</i>
   <i type="int" name="NBANDSGWLOW">     0</i>
  </separator>
  <separator name="vdW DFT" >
   <i type="logical" name="LUSE_VDW"> F  </i>
   <i name="Zab_VDW">     -0.84910000</i>
   <i name="PARAM1">      0.12340000</i>
   <i name="PARAM2">      1.00000000</i>
   <i name="PARAM3">      0.00000000</i>
  </separator>
  <separator name="model GW" >
   <i type="int" name="MODEL_GW">     0</i>
   <i name="MODEL_EPS0">    116.81004641</i>
   <i name="MODEL_ALPHA">      1.00000000</i>
  </separator>
  <separator name="linear response parameters" >
   <i type="logical" name="LEPSILON"> F  </i>
   <i type="logical" name="LRPA"> F  </i>
   <i type="logical" name="LNABLA"> F  </i>
   <i type="logical" name="LVEL"> F  </i>
   <i type="int" name="KINTER">     0</i>
   <i name="CSHIFT">      0.10000000</i>
   <i name="OMEGAMAX">     -1.00000000</i>
   <i name="DEG_THRESHOLD">      0.00200000</i>
   <i name="RTIME">     -0.10000000</i>
   <i name="WPLASMAI">      0.00000000</i>
   <v name="DFIELD">      0.00000000      0.00000000      0.00000000</v>
   <v name="WPLASMA">      0.00000000      0.00000000      0.00000000      0.00000000      0.00000000      0.00000000      0.00000000      0.00000000      0.00000000</v>
  </separator>
  <separator name="orbital magnetization" >
   <i type="logical" name="NUCIND"> F  </i>
   <v name="MAGPOS">      0.00000000      0.00000000      0.00000000</v>
   <i type="logical" name="LNICSALL"> T  </i>
   <i type="logical" name="ORBITALMAG"> F  </i>
   <i type="logical" name="LMAGBLOCH"> F  </i>
   <i type="logical" name="LCHIMAG"> F  </i>
   <i type="logical" name="LGAUGE"> T  </i>
   <i type="int" name="MAGATOM">     0</i>
   <v name="MAGDIPOL">      0.00000000      0.00000000      0.00000000</v>
   <v name="AVECCONST">      0.00000000      0.00000000      0.00000000</v>
  </separator>
  <separator name="response functions" >
   <i type="logical" name="LADDER"> F  </i>
   <i type="logical" name="LRPAFORCE"> F  </i>
   <i type="logical" name="LFXC"> F  </i>
   <i type="logical" name="LHARTREE"> T  </i>
   <i type="int" name="IBSE">     0</i>
   <v type="int" name="KPOINT">    -1     0     0     0</v>
   <i type="logical" name="LTCTE"> F  </i>
   <i type="logical" name="LTETE"> F  </i>
   <i type="logical" name="LTRIPLET"> F  </i>
   <i type="logical" name="LFXCEPS"> F  </i>
   <i type="logical" name="LFXHEG"> F  </i>
   <i type="int" name="NATURALO">     2</i>
   <i type="logical" name="L2ORDER"> F  </i>
   <i type="logical" name="LMP2LT"> F  </i>
   <i type="logical" name="LUSEW"> F  </i>
   <i name="ENCUTGW">     -2.00000000</i>
   <i name="ENCUTGWSOFT">     -2.00000000</i>
   <i name="ENCUTLF">     -1.00000000</i>
   <i type="int" name="LMAXMP2">    -1</i>
   <i name="SCISSOR">      0.00000000</i>
   <i type="int" name="NOMEGA">     0</i>
   <i type="int" name="NOMEGAR">     0</i>
   <i type="int" name="NBANDSGW">    -1</i>
   <i type="int" name="NBANDSO">    -1</i>
   <i type="int" name="NBANDSV">    -1</i>
   <i type="int" name="NELM">   200</i>
   <i type="int" name="NELMHF">     1</i>
   <i type="int" name="DIM">     3</i>
   <i type="int" name="ANTIRES">     0</i>
   <i name="OMEGAMAX">    -30.00000000</i>
   <i name="OMEGAMIN">    -30.00000000</i>
   <i name="OMEGATL">   -200.00000000</i>
   <i type="int" name="OMEGAGRID">   140</i>
   <i name="CSHIFT">     -0.10000000</i>
   <i type="logical" name="SELFENERGY"> F  </i>
   <i type="logical" name="LSPECTRAL"> F  </i>
   <i type="logical" name="LSPECTRALGW"> F  </i>
   <i type="logical" name="LSINGLES"> F  </i>
   <i type="logical" name="LFERMIGW"> F  </i>
   <i type="logical" name="ODDONLYGW"> F  </i>
   <i type="logical" name="EVENONLYGW"> F  </i>
   <i type="int" name="NKREDLFX">     1</i>
   <i type="int" name="NKREDLFY">     1</i>
   <i type="int" name="NKREDLFZ">     1</i>
   <i type="int" name="MAXMEM">  2800</i>
   <i type="int" name="TELESCOPE">     0</i>
   <i type="int" name="TAUPAR">     1</i>
   <i type="int" name="OMEGAPAR">    -1</i>
   <i name="LAMBDA">      1.00000000</i>
  </separator>
  <separator name="External order field" >
   <i name="OFIELD_KAPPA">      0.00000000</i>
   <v name="OFIELD_K">      0.00000000      0.00000000      0.00000000</v>
   <i name="OFIELD_Q6_NEAR">      0.00000000</i>
   <i name="OFIELD_Q6_FAR">      0.00000000</i>
   <i name="OFIELD_A">      0.00000000</i>
  </separator>
  <separator name="solvation model" >
   <i type="logical" name="LSOL"> F  </i>
  </separator>
 </parameters>
 <atominfo>
  <atoms>     126 </atoms>
  <types>       3 </types>
  <array name="atoms" >
   <dimension dim="1">ion</dimension>
   <field type="string">element</field>
   <field type="int">atomtype</field>
   <set>
    <rc><c>H </c><c>   1</c></rc>
    <rc><c>H </c><c>   1</c></rc>
    <rc><c>H </c><c>   1</c></rc>
    <rc><c>H </c><c>   1</c></rc>
    <rc><c>H </c><c>   1</c></rc>
    <rc><c>H </c><c>   1</c></rc>
    <rc><c>H </c><c>   1</c></rc>
    <rc><c>H </c><c>   1</c></rc>
    <rc><c>H </c><c>   1</c></rc>
    <rc><c>H </c><c>   1</c></rc>
    <rc><c>H </c><c>   1</c></rc>
    <rc><c>H </c><c>   1</c></rc>
    <rc><c>H </c><c>   1</c></rc>
    <rc><c>H </c><c>   1</c></rc>
    <rc><c>H </c><c>   1</c></rc>
    <rc><c>H </c><c>   1</c></rc>
    <rc><c>H </c><c>   1</c></rc>
    <rc><c>H </c><c>   1</c></rc>
    <rc><c>H </c><c>   1</c></rc>
    <rc><c>H </c><c>   1</c></rc>
    <rc><c>H </c><c>   1</c></rc>
    <rc><c>H </c><c>   1</c></rc>
    <rc><c>H </c><c>   1</c></rc>
    <rc><c>H </c><c>   1</c></rc>
    <rc><c>H </c><c>   1</c></rc>
    <rc><c>H </c><c>   1</c></rc>
    <rc><c>H </c><c>   1</c></rc>
    <rc><c>H </c><c>   1</c></rc>
    <rc><c>H </c><c>   1</c></rc>
    <rc><c>H </c><c>   1</c></rc>
    <rc><c>H </c><c>   1</c></rc>
    <rc><c>H </c><c>   1</c></rc>
    <rc><c>H </c><c>   1</c></rc>
    <rc><c>H </c><c>   1</c></rc>
    <rc><c>H </c><c>   1</c></rc>
    <rc><c>H </c><c>   1</c></rc>
    <rc><c>H </c><c>   1</c></rc>
    <rc><c>H </c><c>   1</c></rc>
    <rc><c>H </c><c>   1</c></rc>
    <rc><c>H </c><c>   1</c></rc>
    <rc><c>H </c><c>   1</c></rc>
    <rc><c>H </c><c>   1</c></rc>
    <rc><c>H </c><c>   1</c></rc>
    <rc><c>H </c><c>   1</c></rc>
    <rc><c>H </c><c>   1</c></rc>
    <rc><c>H </c><c>   1</c></rc>
    <rc><c>H </c><c>   1</c></rc>
    <rc><c>H </c><c>   1</c></rc>
    <rc><c>N </c><c>   2</c></rc>
    <rc><c>N </c><c>   2</c></rc>
    <rc><c>N </c><c>   2</c></rc>
    <rc><c>N </c><c>   2</c></rc>
    <rc><c>N </c><c>   2</c></rc>
    <rc><c>N </c><c>   2</c></rc>
    <rc><c>C </c><c>   3</c></rc>
    <rc><c>C </c><c>   3</c></rc>
    <rc><c>C </c><c>   3</c></rc>
    <rc><c>C </c><c>   3</c></rc>
    <rc><c>C </c><c>   3</c></rc>
    <rc><c>C </c><c>   3</c></rc>
    <rc><c>C </c><c>   3</c></rc>
    <rc><c>C </c><c>   3</c></rc>
    <rc><c>C </c><c>   3</c></rc>
    <rc><c>C </c><c>   3</c></rc>
    <rc><c>C </c><c>   3</c></rc>
    <rc><c>C </c><c>   3</c></rc>
    <rc><c>C </c><c>   3</c></rc>
    <rc><c>C </c><c>   3</c></rc>
    <rc><c>C </c><c>   3</c></rc>
    <rc><c>C </c><c>   3</c></rc>
    <rc><c>C </c><c>   3</c></rc>
    <rc><c>C </c><c>   3</c></rc>
    <rc><c>C </c><c>   3</c></rc>
    <rc><c>C </c><c>   3</c></rc>
    <rc><c>C </c><c>   3</c></rc>
    <rc><c>C </c><c>   3</c></rc>
    <rc><c>C </c><c>   3</c></rc>
    <rc><c>C </c><c>   3</c></rc>
    <rc><c>C </c><c>   3</c></rc>
    <rc><c>C </c><c>   3</c></rc>
    <rc><c>C </c><c>   3</c></rc>
    <rc><c>C </c><c>   3</c></rc>
    <rc><c>C </c><c>   3</c></rc>
    <rc><c>C </c><c>   3</c></rc>
    <rc><c>C </c><c>   3</c></rc>
    <rc><c>C </c><c>   3</c></rc>
    <rc><c>C </c><c>   3</c></rc>
    <rc><c>C </c><c>   3</c></rc>
    <rc><c>C </c><c>   3</c></rc>
    <rc><c>C </c><c>   3</c></rc>
    <rc><c>C </c><c>   3</c></rc>
    <rc><c>C </c><c>   3</c></rc>
    <rc><c>C </c><c>   3</c></rc>
    <rc><c>C </c><c>   3</c></rc>
    <rc><c>C </c><c>   3</c></rc>
    <rc><c>C </c><c>   3</c></rc>
    <rc><c>C </c><c>   3</c></rc>
    <rc><c>C </c><c>   3</c></rc>
    <rc><c>C </c><c>   3</c></rc>
    <rc><c>C </c><c>   3</c></rc>
    <rc><c>C </c><c>   3</c></rc>
    <rc><c>C </c><c>   3</c></rc>
    <rc><c>C </c><c>   3</c></rc>
    <rc><c>C </c><c>   3</c></rc>
    <rc><c>C </c><c>   3</c></rc>
    <rc><c>C </c><c>   3</c></rc>
    <rc><c>C </c><c>   3</c></rc>
    <rc><c>C </c><c>   3</c></rc>
    <rc><c>C </c><c>   3</c></rc>
    <rc><c>C </c><c>   3</c></rc>
    <rc><c>C </c><c>   3</c></rc>
    <rc><c>C </c><c>   3</c></rc>
    <rc><c>C </c><c>   3</c></rc>
    <rc><c>C </c><c>   3</c></rc>
    <rc><c>C </c><c>   3</c></rc>
    <rc><c>C </c><c>   3</c></rc>
    <rc><c>C </c><c>   3</c></rc>
    <rc><c>C </c><c>   3</c></rc>
    <rc><c>C </c><c>   3</c></rc>
    <rc><c>C </c><c>   3</c></rc>
    <rc><c>C </c><c>   3</c></rc>
    <rc><c>C </c><c>   3</c></rc>
    <rc><c>C </c><c>   3</c></rc>
    <rc><c>C </c><c>   3</c></rc>
    <rc><c>C </c><c>   3</c></rc>
    <rc><c>C </c><c>   3</c></rc>
   </set>
  </array>
  <array name="atomtypes" >
   <dimension dim="1">type</dimension>
   <field type="int">atomspertype</field>
   <field type="string">element</field>
   <field>mass</field>
   <field>valence</field>
   <field type="string">pseudopotential</field>
   <set>
    <rc><c>  48</c><c>H </c><c>      1.00000000</c><c>      1.00000000</c><c>  PAW_PBE H 15Jun2001                   </c></rc>
    <rc><c>   6</c><c>N </c><c>     14.00100000</c><c>      5.00000000</c><c>  PAW_PBE N 08Apr2002                   </c></rc>
    <rc><c>  72</c><c>C </c><c>     12.01100000</c><c>      4.00000000</c><c>  PAW_PBE C 08Apr2002                   </c></rc>
   </set>
  </array>
 </atominfo>
 <structure name="initialpos" >
  <crystal>
   <varray name="basis" >
    <v>      37.61881377       0.05141020       0.00000000 </v>
    <v>     -18.73114436      32.57791494       0.00000000 </v>
    <v>       0.00000000       0.00000000      20.00000000 </v>
   </varray>
   <i name="volume">  24530.10974533 </i>
   <varray name="rec_basis" >
    <v>       0.02656157       0.01527196       0.00000000 </v>
    <v>      -0.00004192       0.03067154       0.00000000 </v>
    <v>       0.00000000       0.00000000       0.05000000 </v>
   </varray>
  </crystal>
  <varray name="positions" >
   <v>       0.48606505       0.40508326       0.50476423 </v>
   <v>       0.51602727       0.35950181       0.51586857 </v>
   <v>       0.54370913       0.17945531       0.49033346 </v>
   <v>       0.83535805       0.47864371       0.43093411 </v>
   <v>       0.91051837       0.51283798       0.42351050 </v>
   <v>       0.49878946       0.10565561       0.47864418 </v>
   <v>       0.77266937       0.42981503       0.47655675 </v>
   <v>       0.57148221       0.34744459       0.51244015 </v>
   <v>       0.65963209       0.22883056       0.51894582 </v>
   <v>       0.52316272       0.61659745       0.45595759 </v>
   <v>       0.48823904       0.65672217       0.46596054 </v>
   <v>       0.45766087       0.83519751       0.52729723 </v>
   <v>       0.16535339       0.52250333       0.45595328 </v>
   <v>       0.08999600       0.49135496       0.44667475 </v>
   <v>       0.49814154       0.91050557       0.51687656 </v>
   <v>       0.22975102       0.57419219       0.49185198 </v>
   <v>       0.43223346       0.66390266       0.49015302 </v>
   <v>       0.34128396       0.77535544       0.49594356 </v>
   <v>       0.96765228       0.51595897       0.38482735 </v>
   <v>       0.04458755       0.54910162       0.38852189 </v>
   <v>       0.57423334       0.53274749       0.41725816 </v>
   <v>       0.54150217       0.57634723       0.41472978 </v>
   <v>       0.47387412       0.04813261       0.42117904 </v>
   <v>       0.42983298       0.97203721       0.41886061 </v>
   <v>       0.60712169       0.50828707       0.47529878 </v>
   <v>       0.63678203       0.46376033       0.48616407 </v>
   <v>       0.71348805       0.41336276       0.51862301 </v>
   <v>       0.59405064       0.30548052       0.50990864 </v>
   <v>       0.70189674       0.29356169       0.52377623 </v>
   <v>       0.91046836       0.42223214       0.55554828 </v>
   <v>       0.83493093       0.38760883       0.56296552 </v>
   <v>       0.60087535       0.08578099       0.51049935 </v>
   <v>       0.64690154       0.16096578       0.52229016 </v>
   <v>       0.76853667       0.35280477       0.53803815 </v>
   <v>       0.65804876       0.42294845       0.50736804 </v>
   <v>       0.58467836       0.24098040       0.50961308 </v>
   <v>       0.41230003       0.50745925       0.51452849 </v>
   <v>       0.37710630       0.54774623       0.52532550 </v>
   <v>       0.29242177       0.59482989       0.52233107 </v>
   <v>       0.41095041       0.70414918       0.51746849 </v>
   <v>       0.30160941       0.71365050       0.52379953 </v>
   <v>       0.09724958       0.59742002       0.54238440 </v>
   <v>       0.17212558       0.62851768       0.55207308 </v>
   <v>       0.38892492       0.91384130       0.46295232 </v>
   <v>       0.34854686       0.83892571       0.47270749 </v>
   <v>       0.23679387       0.65643549       0.53236872 </v>
   <v>       0.35014528       0.58699944       0.52399675 </v>
   <v>       0.41871468       0.76947367       0.52309689 </v>
   <v>       0.98006449       0.48375667       0.53701008 </v>
   <v>       0.02061515       0.50073034       0.53842396 </v>
   <v>       0.48929654       0.47371950       0.50946722 </v>
   <v>       0.47194683       0.49688726       0.50827447 </v>
   <v>       0.53219755       0.02125343       0.51396791 </v>
   <v>       0.50882272       0.98087907       0.51280516 </v>
   <v>       0.54411655       0.45971801       0.48799153 </v>
   <v>       0.57869603       0.40781571       0.50192481 </v>
   <v>       0.53604809       0.39226777       0.50684981 </v>
   <v>       0.51903914       0.41753182       0.50046686 </v>
   <v>       0.59483155       0.37986383       0.50843411 </v>
   <v>       0.78462930       0.41107441       0.49808880 </v>
   <v>       0.85169297       0.46579618       0.45773580 </v>
   <v>       0.91590550       0.46929029       0.48791365 </v>
   <v>       0.89413748       0.48489593       0.45318525 </v>
   <v>       0.62736179       0.22021686       0.51396705 </v>
   <v>       0.55689594       0.15946022       0.49465709 </v>
   <v>       0.54676769       0.09021033       0.49252253 </v>
   <v>       0.53140897       0.11750592       0.48732713 </v>
   <v>       0.46996132       0.55858426       0.48335457 </v>
   <v>       0.42986338       0.60562856       0.49583510 </v>
   <v>       0.47126090       0.62381894       0.47619077 </v>
   <v>       0.49088213       0.60094001       0.47004568 </v>
   <v>       0.41124487       0.63145714       0.50081573 </v>
   <v>       0.21911985       0.59546473       0.50612416 </v>
   <v>       0.15048419       0.53915920       0.47466771 </v>
   <v>       0.08855364       0.54254371       0.49290833 </v>
   <v>       0.10813403       0.52162979       0.46918872 </v>
   <v>       0.37387570       0.78653446       0.50468375 </v>
   <v>       0.44232323       0.85213013       0.51253794 </v>
   <v>       0.44697326       0.91778651       0.48791424 </v>
   <v>       0.46534639       0.89444695       0.50672274 </v>
   <v>       0.04338129       0.52416802       0.48688890 </v>
   <v>       0.02547218       0.53072432       0.43006351 </v>
   <v>       0.98327393       0.51276666       0.42839148 </v>
   <v>       0.96098883       0.48938250       0.48404282 </v>
   <v>       0.49066976       0.53413716       0.47810498 </v>
   <v>       0.52781124       0.54787848       0.44330653 </v>
   <v>       0.54597449       0.52379550       0.44471120 </v>
   <v>       0.52632976       0.48666468       0.48063559 </v>
   <v>       0.47163177       0.96281239       0.48260839 </v>
   <v>       0.45821584       0.98651139       0.44758985 </v>
   <v>       0.48255068       0.02862027       0.44887490 </v>
   <v>       0.51957338       0.04565714       0.48497965 </v>
   <v>       0.58674614       0.47551399       0.48325815 </v>
   <v>       0.60364258       0.45026580       0.49014441 </v>
   <v>       0.63487052       0.39040763       0.50981507 </v>
   <v>       0.65169045       0.36286855       0.51386298 </v>
   <v>       0.62731884       0.31980086       0.51350322 </v>
   <v>       0.64459280       0.29425525       0.51701477 </v>
   <v>       0.68760200       0.31267022       0.52129952 </v>
   <v>       0.71290445       0.35541011       0.52018540 </v>
   <v>       0.69436384       0.38001659       0.51727421 </v>
   <v>       0.75742330       0.37312837       0.52055653 </v>
   <v>       0.82910192       0.43001462       0.49627828 </v>
   <v>       0.85123047       0.41472110       0.53143313 </v>
   <v>       0.89362500       0.43398494       0.52757885 </v>
   <v>       0.61708948       0.25000187       0.51377779 </v>
   <v>       0.59917026       0.17631751       0.50729014 </v>
   <v>       0.61428174       0.14875504       0.51265210 </v>
   <v>       0.58877063       0.10666925       0.50585010 </v>
   <v>       0.42859236       0.54018624       0.50347186 </v>
   <v>       0.40908616       0.56310359       0.50949769 </v>
   <v>       0.37172631       0.61954346       0.51529613 </v>
   <v>       0.35377205       0.64618700       0.51826740 </v>
   <v>       0.37757694       0.68934802       0.51811304 </v>
   <v>       0.35955243       0.71424789       0.51909013 </v>
   <v>       0.31646927       0.69505036       0.52163758 </v>
   <v>       0.29172988       0.65223062       0.52158014 </v>
   <v>       0.31097478       0.62822792       0.52071399 </v>
   <v>       0.24725930       0.63459059       0.52142437 </v>
   <v>       0.17476713       0.57819192       0.50347737 </v>
   <v>       0.15458683       0.59867458       0.52795197 </v>
   <v>       0.11230757       0.58119638       0.52267592 </v>
   <v>       0.38603887       0.75873670       0.51657525 </v>
   <v>       0.39971143       0.83088094       0.50003987 </v>
   <v>       0.38151784       0.85446589       0.48192340 </v>
   <v>       0.40451980       0.89686839       0.47589805 </v>
  </varray>
 </structure>
 <calculation>
  <scstep>
   <time name="dav"> 1133.06 1146.31</time>
   <time name="total"> 1133.51 1146.77</time>
   <energy>
    <i name="alphaZ">     25.73584858 </i>
    <i name="ewald">  44321.07576242 </i>
    <i name="hartreedc"> -54648.60465449 </i>
    <i name="XCdc">   1236.57169732 </i>
    <i name="pawpsdc">  33048.98183669 </i>
    <i name="pawaedc"> -33107.56190053 </i>
    <i name="eentropy">     -0.00000000 </i>
    <i name="bandstr">  -4526.16287538 </i>
    <i name="atom">  12781.24409132 </i>
    <i name="e_fr_energy">   -868.72019406 </i>
    <i name="e_wo_entrp">   -868.72019406 </i>
    <i name="e_0_energy">   -868.72019406 </i>
   </energy>
  </scstep>
  <scstep>
   <time name="dav"> 1284.05 1298.72</time>
   <time name="total"> 1284.06 1298.72</time>
   <energy>
    <i name="e_fr_energy">   -868.98993071 </i>
    <i name="e_wo_entrp">   -868.98993071 </i>
    <i name="e_0_energy">   -868.98993071 </i>
   </energy>
  </scstep>
  <scstep>
   <time name="dav"> 1424.00 1440.23</time>
   <time name="total"> 1424.00 1440.24</time>
   <energy>
    <i name="e_fr_energy">   -868.99870714 </i>
    <i name="e_wo_entrp">   -868.99870714 </i>
    <i name="e_0_energy">   -868.99870714 </i>
   </energy>
  </scstep>
  <scstep>
   <time name="dav"> 1245.64 1260.17</time>
   <time name="total"> 1245.64 1260.17</time>
   <energy>
    <i name="e_fr_energy">   -868.99882887 </i>
    <i name="e_wo_entrp">   -868.99882887 </i>
    <i name="e_0_energy">   -868.99882887 </i>
   </energy>
  </scstep>
  <scstep>
   <time name="dav"> 1181.36 1194.58</time>
   <time name="total"> 1181.36 1194.58</time>
   <energy>
    <i name="alphaZ">     25.73584858 </i>
    <i name="ewald">  44321.07576242 </i>
    <i name="hartreedc"> -54648.60465449 </i>
    <i name="XCdc">   1236.57169732 </i>
    <i name="pawpsdc">  33048.98183669 </i>
    <i name="pawaedc"> -33107.56190053 </i>
    <i name="eentropy">     -0.00000000 </i>
    <i name="bandstr">  -4526.44151662 </i>
    <i name="atom">  12781.24409132 </i>
    <i name="e_fr_energy">   -868.99883530 </i>
    <i name="e_wo_entrp">   -868.99883530 </i>
    <i name="e_0_energy">   -868.99883530 </i>
   </energy>
  </scstep>
  <structure>
   <crystal>
    <varray name="basis" >
     <v>      37.61881377       0.05141020       0.00000000 </v>
     <v>     -18.73114436      32.57791494       0.00000000 </v>
     <v>       0.00000000       0.00000000      20.00000000 </v>
    </varray>
    <i name="volume">  24530.10974533 </i>
    <varray name="rec_basis" >
     <v>       0.02656157       0.01527196       0.00000000 </v>
     <v>      -0.00004192       0.03067154       0.00000000 </v>
     <v>       0.00000000       0.00000000       0.05000000 </v>
    </varray>
   </crystal>
   <varray name="positions" >
    <v>       0.48606505       0.40508326       0.50476423 </v>
    <v>       0.51602727       0.35950181       0.51586857 </v>
    <v>       0.54370913       0.17945531       0.49033346 </v>
    <v>       0.83535805       0.47864371       0.43093411 </v>
    <v>       0.91051837       0.51283798       0.42351050 </v>
    <v>       0.49878946       0.10565561       0.47864418 </v>
    <v>       0.77266937       0.42981503       0.47655675 </v>
    <v>       0.57148221       0.34744459       0.51244015 </v>
    <v>       0.65963209       0.22883056       0.51894582 </v>
    <v>       0.52316272       0.61659745       0.45595759 </v>
    <v>       0.48823904       0.65672217       0.46596054 </v>
    <v>       0.45766087       0.83519751       0.52729723 </v>
    <v>       0.16535339       0.52250333       0.45595328 </v>
    <v>       0.08999600       0.49135496       0.44667475 </v>
    <v>       0.49814154       0.91050557       0.51687656 </v>
    <v>       0.22975102       0.57419219       0.49185198 </v>
    <v>       0.43223346       0.66390266       0.49015302 </v>
    <v>       0.34128396       0.77535544       0.49594356 </v>
    <v>       0.96765228       0.51595897       0.38482735 </v>
    <v>       0.04458755       0.54910162       0.38852189 </v>
    <v>       0.57423334       0.53274749       0.41725816 </v>
    <v>       0.54150217       0.57634723       0.41472978 </v>
    <v>       0.47387412       0.04813261       0.42117904 </v>
    <v>       0.42983298       0.97203721       0.41886061 </v>
    <v>       0.60712169       0.50828707       0.47529878 </v>
    <v>       0.63678203       0.46376033       0.48616407 </v>
    <v>       0.71348805       0.41336276       0.51862301 </v>
    <v>       0.59405064       0.30548052       0.50990864 </v>
    <v>       0.70189674       0.29356169       0.52377623 </v>
    <v>       0.91046836       0.42223214       0.55554828 </v>
    <v>       0.83493093       0.38760883       0.56296552 </v>
    <v>       0.60087535       0.08578099       0.51049935 </v>
    <v>       0.64690154       0.16096578       0.52229016 </v>
    <v>       0.76853667       0.35280477       0.53803815 </v>
    <v>       0.65804876       0.42294845       0.50736804 </v>
    <v>       0.58467836       0.24098040       0.50961308 </v>
    <v>       0.41230003       0.50745925       0.51452849 </v>
    <v>       0.37710630       0.54774623       0.52532550 </v>
    <v>       0.29242177       0.59482989       0.52233107 </v>
    <v>       0.41095041       0.70414918       0.51746849 </v>
    <v>       0.30160941       0.71365050       0.52379953 </v>
    <v>       0.09724958       0.59742002       0.54238440 </v>
    <v>       0.17212558       0.62851768       0.55207308 </v>
    <v>       0.38892492       0.91384130       0.46295232 </v>
    <v>       0.34854686       0.83892571       0.47270749 </v>
    <v>       0.23679387       0.65643549       0.53236872 </v>
    <v>       0.35014528       0.58699944       0.52399675 </v>
    <v>       0.41871468       0.76947367       0.52309689 </v>
    <v>       0.98006449       0.48375667       0.53701008 </v>
    <v>       0.02061515       0.50073034       0.53842396 </v>
    <v>       0.48929654       0.47371950       0.50946722 </v>
    <v>       0.47194683       0.49688726       0.50827447 </v>
    <v>       0.53219755       0.02125343       0.51396791 </v>
    <v>       0.50882272       0.98087907       0.51280516 </v>
    <v>       0.54411655       0.45971801       0.48799153 </v>
    <v>       0.57869603       0.40781571       0.50192481 </v>
    <v>       0.53604809       0.39226777       0.50684981 </v>
    <v>       0.51903914       0.41753182       0.50046686 </v>
    <v>       0.59483155       0.37986383       0.50843411 </v>
    <v>       0.78462930       0.41107441       0.49808880 </v>
    <v>       0.85169297       0.46579618       0.45773580 </v>
    <v>       0.91590550       0.46929029       0.48791365 </v>
    <v>       0.89413748       0.48489593       0.45318525 </v>
    <v>       0.62736179       0.22021686       0.51396705 </v>
    <v>       0.55689594       0.15946022       0.49465709 </v>
    <v>       0.54676769       0.09021033       0.49252253 </v>
    <v>       0.53140897       0.11750592       0.48732713 </v>
    <v>       0.46996132       0.55858426       0.48335457 </v>
    <v>       0.42986338       0.60562856       0.49583510 </v>
    <v>       0.47126090       0.62381894       0.47619077 </v>
    <v>       0.49088213       0.60094001       0.47004568 </v>
    <v>       0.41124487       0.63145714       0.50081573 </v>
    <v>       0.21911985       0.59546473       0.50612416 </v>
    <v>       0.15048419       0.53915920       0.47466771 </v>
    <v>       0.08855364       0.54254371       0.49290833 </v>
    <v>       0.10813403       0.52162979       0.46918872 </v>
    <v>       0.37387570       0.78653446       0.50468375 </v>
    <v>       0.44232323       0.85213013       0.51253794 </v>
    <v>       0.44697326       0.91778651       0.48791424 </v>
    <v>       0.46534639       0.89444695       0.50672274 </v>
    <v>       0.04338129       0.52416802       0.48688890 </v>
    <v>       0.02547218       0.53072432       0.43006351 </v>
    <v>       0.98327393       0.51276666       0.42839148 </v>
    <v>       0.96098883       0.48938250       0.48404282 </v>
    <v>       0.49066976       0.53413716       0.47810498 </v>
    <v>       0.52781124       0.54787848       0.44330653 </v>
    <v>       0.54597449       0.52379550       0.44471120 </v>
    <v>       0.52632976       0.48666468       0.48063559 </v>
    <v>       0.47163177       0.96281239       0.48260839 </v>
    <v>       0.45821584       0.98651139       0.44758985 </v>
    <v>       0.48255068       0.02862027       0.44887490 </v>
    <v>       0.51957338       0.04565714       0.48497965 </v>
    <v>       0.58674614       0.47551399       0.48325815 </v>
    <v>       0.60364258       0.45026580       0.49014441 </v>
    <v>       0.63487052       0.39040763       0.50981507 </v>
    <v>       0.65169045       0.36286855       0.51386298 </v>
    <v>       0.62731884       0.31980086       0.51350322 </v>
    <v>       0.64459280       0.29425525       0.51701477 </v>
    <v>       0.68760200       0.31267022       0.52129952 </v>
    <v>       0.71290445       0.35541011       0.52018540 </v>
    <v>       0.69436384       0.38001659       0.51727421 </v>
    <v>       0.75742330       0.37312837       0.52055653 </v>
    <v>       0.82910192       0.43001462       0.49627828 </v>
    <v>       0.85123047       0.41472110       0.53143313 </v>
    <v>       0.89362500       0.43398494       0.52757885 </v>
    <v>       0.61708948       0.25000187       0.51377779 </v>
    <v>       0.59917026       0.17631751       0.50729014 </v>
    <v>       0.61428174       0.14875504       0.51265210 </v>
    <v>       0.58877063       0.10666925       0.50585010 </v>
    <v>       0.42859236       0.54018624       0.50347186 </v>
    <v>       0.40908616       0.56310359       0.50949769 </v>
    <v>       0.37172631       0.61954346       0.51529613 </v>
    <v>       0.35377205       0.64618700       0.51826740 </v>
    <v>       0.37757694       0.68934802       0.51811304 </v>
    <v>       0.35955243       0.71424789       0.51909013 </v>
    <v>       0.31646927       0.69505036       0.52163758 </v>
    <v>       0.29172988       0.65223062       0.52158014 </v>
    <v>       0.31097478       0.62822792       0.52071399 </v>
    <v>       0.24725930       0.63459059       0.52142437 </v>
    <v>       0.17476713       0.57819192       0.50347737 </v>
    <v>       0.15458683       0.59867458       0.52795197 </v>
    <v>       0.11230757       0.58119638       0.52267592 </v>
    <v>       0.38603887       0.75873670       0.51657525 </v>
    <v>       0.39971143       0.83088094       0.50003987 </v>
    <v>       0.38151784       0.85446589       0.48192340 </v>
    <v>       0.40451980       0.89686839       0.47589805 </v>
   </varray>
  </structure>
  <varray name="forces" >
   <v>       0.00426742       0.00211914       0.00038151 </v>
   <v>       0.00018019       0.00125195      -0.00046528 </v>
   <v>      -0.00225121       0.00457390      -0.00239979 </v>
   <v>      -0.00012430       0.00108304       0.00059309 </v>
   <v>       0.00265827      -0.00116248       0.00251516 </v>
   <v>       0.00181464      -0.00107740       0.00003434 </v>
   <v>       0.00263470      -0.00036627       0.00051006 </v>
   <v>      -0.00150246      -0.00000706      -0.00064593 </v>
   <v>       0.00301815       0.00164381      -0.00123656 </v>
   <v>      -0.00125588       0.00042848       0.00357077 </v>
   <v>       0.00121331      -0.00287045       0.00103558 </v>
   <v>       0.00182815      -0.00307059       0.00171951 </v>
   <v>       0.00120030      -0.00311442      -0.00020575 </v>
   <v>       0.00031156      -0.00263843       0.00188836 </v>
   <v>       0.00170694       0.00362935      -0.00071702 </v>
   <v>      -0.00017251       0.00118065       0.00314560 </v>
   <v>      -0.00127000       0.00187969       0.00070745 </v>
   <v>      -0.00115643      -0.00055097       0.00012275 </v>
   <v>      -0.00271060       0.00007215      -0.00417074 </v>
   <v>      -0.00118789      -0.00072894       0.00643448 </v>
   <v>      -0.00173795       0.00040199       0.00245695 </v>
   <v>      -0.00377515      -0.00206924       0.00106136 </v>
   <v>      -0.00075761       0.00017157       0.00398480 </v>
   <v>       0.00048041      -0.00449322       0.00076131 </v>
   <v>       0.00145494      -0.00213740      -0.00166421 </v>
   <v>       0.00486461      -0.00115968      -0.00247620 </v>
   <v>      -0.00215245      -0.00438378      -0.00493289 </v>
   <v>      -0.00244385      -0.00129834      -0.00074430 </v>
   <v>       0.00065758      -0.00150412      -0.00171771 </v>
   <v>       0.00163545       0.00041329      -0.00113911 </v>
   <v>      -0.00191782       0.00116766       0.00109585 </v>
   <v>      -0.00225163       0.00166063       0.00014866 </v>
   <v>       0.00019980       0.00218145       0.00065902 </v>
   <v>      -0.00117069       0.00048456      -0.00049573 </v>
   <v>      -0.00005978      -0.00130062      -0.00091916 </v>
   <v>      -0.00032698      -0.00053371      -0.00088279 </v>
   <v>       0.00031661       0.00185549       0.00017853 </v>
   <v>      -0.00307698       0.00007744      -0.00055390 </v>
   <v>       0.00007294       0.00517840      -0.00427780 </v>
   <v>       0.00148433       0.00267553       0.00040666 </v>
   <v>       0.00173933      -0.00015243      -0.00236380 </v>
   <v>       0.00164291      -0.00300443      -0.00108702 </v>
   <v>       0.00253617      -0.00031246       0.00213638 </v>
   <v>       0.00317502      -0.00206712       0.00262785 </v>
   <v>      -0.00053977      -0.00057800       0.00048629 </v>
   <v>       0.00177290      -0.00173705      -0.00051178 </v>
   <v>      -0.00193679      -0.00102757      -0.00144165 </v>
   <v>       0.00119846      -0.00045033      -0.00125798 </v>
   <v>      -0.00252981       0.00617971      -0.00353965 </v>
   <v>      -0.00371805      -0.00462887       0.00455688 </v>
   <v>      -0.00248409      -0.00352589       0.00052015 </v>
   <v>      -0.00027127       0.00176278      -0.00125874 </v>
   <v>      -0.00017234      -0.00484471      -0.00203867 </v>
   <v>      -0.00489992       0.00124122      -0.00032206 </v>
   <v>       0.00106955       0.00025927       0.00134580 </v>
   <v>       0.00155497       0.00218287      -0.00171979 </v>
   <v>       0.00076410      -0.00243918       0.00040945 </v>
   <v>      -0.00453860      -0.00351187       0.00293301 </v>
   <v>       0.00150003      -0.00090126       0.00029592 </v>
   <v>      -0.00230761       0.00501185      -0.00064488 </v>
   <v>       0.00326143       0.00315516       0.00178425 </v>
   <v>       0.00188860      -0.00092822      -0.00051371 </v>
   <v>      -0.00368522       0.00210279      -0.00025009 </v>
   <v>       0.00033697      -0.00076163       0.00134221 </v>
   <v>      -0.00261392      -0.00808358      -0.00337001 </v>
   <v>      -0.00136077      -0.00177343      -0.00124639 </v>
   <v>       0.00225624      -0.00052412       0.00133337 </v>
   <v>       0.00186871      -0.00343547       0.00409657 </v>
   <v>       0.00078223      -0.00330568       0.00227293 </v>
   <v>       0.00110646       0.00507902      -0.00107318 </v>
   <v>       0.00490100       0.00101702       0.00177123 </v>
   <v>       0.00064518       0.00212451      -0.00115302 </v>
   <v>       0.00304908      -0.00307089      -0.00230695 </v>
   <v>       0.00247769      -0.00157957      -0.00029913 </v>
   <v>      -0.00328993      -0.00462440       0.00348133 </v>
   <v>       0.00359580      -0.00169582      -0.00079020 </v>
   <v>      -0.00081602      -0.00088652      -0.00125889 </v>
   <v>      -0.00367442       0.00401738      -0.00207667 </v>
   <v>       0.00262165       0.00741586       0.00311916 </v>
   <v>      -0.00461593      -0.00037403      -0.00289140 </v>
   <v>      -0.00486450       0.00560060      -0.00501406 </v>
   <v>       0.00157825       0.00334904      -0.00172479 </v>
   <v>       0.00008289      -0.00201755       0.00751148 </v>
   <v>       0.00812652      -0.00108946       0.00422854 </v>
   <v>       0.00249764      -0.00067115       0.00089368 </v>
   <v>       0.00378526      -0.00119067       0.00250525 </v>
   <v>      -0.00339393      -0.00015759      -0.00190772 </v>
   <v>      -0.00160175       0.00296965       0.00073525 </v>
   <v>       0.00148748      -0.00282090      -0.00267884 </v>
   <v>      -0.00124599      -0.00182504       0.00414504 </v>
   <v>       0.00544369       0.00188556      -0.00039994 </v>
   <v>      -0.00422790       0.00594957       0.00147873 </v>
   <v>      -0.00382916      -0.00067503       0.00091638 </v>
   <v>       0.00033027       0.00389291      -0.00249012 </v>
   <v>      -0.00022726       0.00191715      -0.00069030 </v>
   <v>       0.00090042      -0.00245254       0.00050917 </v>
   <v>      -0.00321733       0.00160796      -0.00138884 </v>
   <v>       0.00520269      -0.00038038       0.00072680 </v>
   <v>       0.00018091      -0.00185962      -0.00231649 </v>
   <v>      -0.00423742       0.00498335      -0.00118650 </v>
   <v>       0.00299782       0.00202033      -0.00183491 </v>
   <v>       0.00115386       0.00030729      -0.00117706 </v>
   <v>      -0.00462745       0.00258225      -0.00216355 </v>
   <v>      -0.00360718       0.00119812       0.00194496 </v>
   <v>       0.00436344       0.00061761       0.00344997 </v>
   <v>      -0.00255105      -0.00156707       0.00070623 </v>
   <v>      -0.00061083       0.00015356       0.00002542 </v>
   <v>       0.00026139       0.00285812      -0.00125830 </v>
   <v>       0.00240472      -0.00137741       0.00261907 </v>
   <v>      -0.00013034      -0.00003340       0.00065426 </v>
   <v>       0.00041463      -0.00116899      -0.00180543 </v>
   <v>       0.00017206      -0.00056390      -0.00409389 </v>
   <v>      -0.00381891      -0.00278287       0.00004834 </v>
   <v>       0.00402200      -0.00350930      -0.00131514 </v>
   <v>      -0.00490562       0.00090079       0.00113142 </v>
   <v>       0.00204917      -0.00101835      -0.00016826 </v>
   <v>       0.00001861      -0.00460922      -0.00173997 </v>
   <v>      -0.00330015      -0.00071802      -0.00291780 </v>
   <v>      -0.00156325       0.00369244       0.00087932 </v>
   <v>       0.00346197      -0.00124936       0.00433764 </v>
   <v>      -0.00081053      -0.00048353      -0.00003771 </v>
   <v>      -0.00000914      -0.00175594      -0.00288876 </v>
   <v>       0.00076738       0.00605770      -0.00486830 </v>
   <v>      -0.00113704      -0.00309928       0.00127541 </v>
   <v>      -0.00007150      -0.00195428       0.00107961 </v>
   <v>      -0.00070300       0.00749888      -0.00059937 </v>
  </varray>
  <varray name="stress" >
   <v>      -0.00016813       0.00059035      -0.00060491 </v>
   <v>       0.00059035       0.00186524      -0.00193585 </v>
   <v>      -0.00060491      -0.00193585      -0.09909838 </v>
  </varray>
  <energy>
   <i name="e_fr_energy">   -871.09948970 </i>
   <i name="e_wo_entrp">   -871.09948970 </i>
   <i name="e_0_energy">     -0.00000000 </i>
  </energy>
  <time name="totalsc"> 7603.46 7695.27</time>
  <eigenvalues>
   <array>
    <dimension dim="1">band</dimension>
    <dimension dim="2">kpoint</dimension>
    <dimension dim="3">spin</dimension>
    <field>eigene</field>
    <field>occ</field>
    <set>
     <set comment="spin 1">
      <set comment="kpoint 1">
       <r>  -25.2339    1.0000 </r>
       <r>  -25.2142    1.0000 </r>
       <r>  -25.2134    1.0000 </r>
       <r>  -21.6892    1.0000 </r>
       <r>  -21.6442    1.0000 </r>
       <r>  -21.6290    1.0000 </r>
       <r>  -21.6250    1.0000 </r>
       <r>  -21.5405    1.0000 </r>
       <r>  -21.4594    1.0000 </r>
       <r>  -21.4430    1.0000 </r>
       <r>  -21.3915    1.0000 </r>
       <r>  -20.7185    1.0000 </r>
       <r>  -20.6938    1.0000 </r>
       <r>  -20.6294    1.0000 </r>
       <r>  -20.4601    1.0000 </r>
       <r>  -20.4341    1.0000 </r>
       <r>  -20.3880    1.0000 </r>
       <r>  -20.0265    1.0000 </r>
       <r>  -20.0081    1.0000 </r>
       <r>  -19.9311    1.0000 </r>
       <r>  -19.9191    1.0000 </r>
       <r>  -19.5253    1.0000 </r>
       <r>  -19.2636    1.0000 </r>
       <r>  -19.0340    1.0000 </r>
       <r>  -19.0244    1.0000 </r>
       <r>  -18.7267    1.0000 </r>
       <r>  -18.7182    1.0000 </r>
       <r>  -18.4786    1.0000 </r>
       <r>  -18.4579    1.0000 </r>
       <r>  -18.4401    1.0000 </r>
       <r>  -18.4366    1.0000 </r>
       <r>  -18.4299    1.0000 </r>
       <r>  -18.4242    1.0000 </r>
       <r>  -18.1467    1.0000 </r>
       <r>  -17.7554    1.0000 </r>
       <r>  -17.7017    1.0000 </r>
       <r>  -17.6966    1.0000 </r>
       <r>  -17.4076    1.0000 </r>
       <r>  -17.3898    1.0000 </r>
       <r>  -16.4173    1.0000 </r>
       <r>  -16.4037    1.0000 </r>
       <r>  -16.3915    1.0000 </r>
       <r>  -16.3141    1.0000 </r>
       <r>  -16.3092    1.0000 </r>
       <r>  -16.3040    1.0000 </r>
       <r>  -15.6740    1.0000 </r>
       <r>  -15.6629    1.0000 </r>
       <r>  -15.4672    1.0000 </r>
       <r>  -15.3957    1.0000 </r>
       <r>  -15.3615    1.0000 </r>
       <r>  -15.1565    1.0000 </r>
       <r>  -15.0196    1.0000 </r>
       <r>  -14.9736    1.0000 </r>
       <r>  -14.9403    1.0000 </r>
       <r>  -14.8489    1.0000 </r>
       <r>  -14.7643    1.0000 </r>
       <r>  -14.6675    1.0000 </r>
       <r>  -14.4602    1.0000 </r>
       <r>  -14.4540    1.0000 </r>
       <r>  -14.3377    1.0000 </r>
       <r>  -14.3092    1.0000 </r>
       <r>  -14.0251    1.0000 </r>
       <r>  -13.9554    1.0000 </r>
       <r>  -13.3029    1.0000 </r>
       <r>  -13.2733    1.0000 </r>
       <r>  -13.2499    1.0000 </r>
       <r>  -13.2473    1.0000 </r>
       <r>  -13.1142    1.0000 </r>
       <r>  -12.9774    1.0000 </r>
       <r>  -12.9657    1.0000 </r>
       <r>  -12.8313    1.0000 </r>
       <r>  -12.6810    1.0000 </r>
       <r>  -12.6790    1.0000 </r>
       <r>  -12.6526    1.0000 </r>
       <r>  -12.5509    1.0000 </r>
       <r>  -12.5273    1.0000 </r>
       <r>  -12.4537    1.0000 </r>
       <r>  -12.3818    1.0000 </r>
       <r>  -12.1475    1.0000 </r>
       <r>  -11.9161    1.0000 </r>
       <r>  -11.7650    1.0000 </r>
       <r>  -11.6989    1.0000 </r>
       <r>  -11.6028    1.0000 </r>
       <r>  -11.5455    1.0000 </r>
       <r>  -11.4738    1.0000 </r>
       <r>  -11.4378    1.0000 </r>
       <r>  -11.1824    1.0000 </r>
       <r>  -11.1576    1.0000 </r>
       <r>  -11.1304    1.0000 </r>
       <r>  -11.0393    1.0000 </r>
       <r>  -11.0179    1.0000 </r>
       <r>  -10.9430    1.0000 </r>
       <r>  -10.8761    1.0000 </r>
       <r>  -10.8734    1.0000 </r>
       <r>  -10.8437    1.0000 </r>
       <r>  -10.6337    1.0000 </r>
       <r>  -10.5866    1.0000 </r>
       <r>  -10.5774    1.0000 </r>
       <r>  -10.5367    1.0000 </r>
       <r>  -10.4885    1.0000 </r>
       <r>  -10.4717    1.0000 </r>
       <r>  -10.4334    1.0000 </r>
       <r>  -10.3757    1.0000 </r>
       <r>  -10.3281    1.0000 </r>
       <r>  -10.3077    1.0000 </r>
       <r>  -10.2284    1.0000 </r>
       <r>  -10.1949    1.0000 </r>
       <r>  -10.1356    1.0000 </r>
       <r>  -10.1073    1.0000 </r>
       <r>  -10.0978    1.0000 </r>
       <r>  -10.0866    1.0000 </r>
       <r>  -10.0631    1.0000 </r>
       <r>  -10.0552    1.0000 </r>
       <r>  -10.0446    1.0000 </r>
       <r>   -9.9980    1.0000 </r>
       <r>   -9.9425    1.0000 </r>
       <r>   -9.8897    1.0000 </r>
       <r>   -9.7598    1.0000 </r>
       <r>   -9.6664    1.0000 </r>
       <r>   -9.6375    1.0000 </r>
       <r>   -9.5768    1.0000 </r>
       <r>   -9.4584    1.0000 </r>
       <r>   -9.3998    1.0000 </r>
       <r>   -9.3062    1.0000 </r>
       <r>   -9.2430    1.0000 </r>
       <r>   -9.2341    1.0000 </r>
       <r>   -9.1358    1.0000 </r>
       <r>   -9.1248    1.0000 </r>
       <r>   -9.1030    1.0000 </r>
       <r>   -9.0727    1.0000 </r>
       <r>   -9.0718    1.0000 </r>
       <r>   -8.8728    1.0000 </r>
       <r>   -8.8265    1.0000 </r>
       <r>   -8.6848    1.0000 </r>
       <r>   -8.6722    1.0000 </r>
       <r>   -8.6172    1.0000 </r>
       <r>   -8.5955    1.0000 </r>
       <r>   -8.5847    1.0000 </r>
       <r>   -8.5066    1.0000 </r>
       <r>   -8.3381    1.0000 </r>
       <r>   -8.2531    1.0000 </r>
       <r>   -8.2236    1.0000 </r>
       <r>   -8.2091    1.0000 </r>
       <r>   -8.1902    1.0000 </r>
       <r>   -8.1729    1.0000 </r>
       <r>   -8.0550    1.0000 </r>
       <r>   -8.0320    1.0000 </r>
       <r>   -8.0169    1.0000 </r>
       <r>   -7.9838    1.0000 </r>
       <r>   -7.9507    1.0000 </r>
       <r>   -7.9426    1.0000 </r>
       <r>   -7.9288    1.0000 </r>
       <r>   -7.9037    1.0000 </r>
       <r>   -7.8025    1.0000 </r>
       <r>   -7.6131    1.0000 </r>
       <r>   -7.5647    1.0000 </r>
       <r>   -7.5345    1.0000 </r>
       <r>   -7.4905    1.0000 </r>
       <r>   -7.4057    1.0000 </r>
       <r>   -7.2574    1.0000 </r>
       <r>   -7.2500    1.0000 </r>
       <r>   -7.2021    1.0000 </r>
       <r>   -7.1324    1.0000 </r>
       <r>   -6.8320    1.0000 </r>
       <r>   -6.7523    1.0000 </r>
       <r>   -6.5440    1.0000 </r>
       <r>   -6.3793    1.0000 </r>
       <r>   -6.3597    1.0000 </r>
       <r>   -6.3488    1.0000 </r>
       <r>   -6.3318    1.0000 </r>
       <r>   -6.3247    1.0000 </r>
       <r>   -6.3229    1.0000 </r>
       <r>   -6.3067    1.0000 </r>
       <r>   -6.1811    1.0000 </r>
       <r>   -5.5332    1.0000 </r>
       <r>   -5.3164    1.0000 </r>
       <r>   -5.1717    1.0000 </r>
       <r>   -5.1147    1.0000 </r>
       <r>   -5.0218    1.0000 </r>
       <r>   -4.9569    1.0000 </r>
       <r>   -4.9162    1.0000 </r>
       <r>   -4.9137    1.0000 </r>
       <r>   -4.9036    1.0000 </r>
       <r>   -2.8871    0.0000 </r>
       <r>   -2.8126    0.0000 </r>
       <r>   -2.6412    0.0000 </r>
       <r>   -2.4911    0.0000 </r>
       <r>   -2.4180    0.0000 </r>
       <r>   -2.3204    0.0000 </r>
       <r>   -2.2703    0.0000 </r>
       <r>   -2.2111    0.0000 </r>
       <r>   -2.0905    0.0000 </r>
       <r>   -1.7312    0.0000 </r>
       <r>   -1.6604    0.0000 </r>
       <r>   -1.3908    0.0000 </r>
       <r>   -1.2304    0.0000 </r>
       <r>   -1.2059    0.0000 </r>
       <r>   -1.1794    0.0000 </r>
       <r>   -1.1460    0.0000 </r>
       <r>   -1.1255    0.0000 </r>
       <r>   -1.0791    0.0000 </r>
       <r>   -0.7898    0.0000 </r>
       <r>   -0.7155    0.0000 </r>
       <r>   -0.5145    0.0000 </r>
       <r>   -0.4837    0.0000 </r>
       <r>   -0.4749    0.0000 </r>
       <r>   -0.4212    0.0000 </r>
       <r>   -0.3873    0.0000 </r>
       <r>   -0.2922    0.0000 </r>
       <r>   -0.2447    0.0000 </r>
       <r>   -0.2179    0.0000 </r>
       <r>   -0.1939    0.0000 </r>
       <r>   -0.1804    0.0000 </r>
       <r>   -0.1686    0.0000 </r>
       <r>   -0.1156    0.0000 </r>
       <r>    0.0232    0.0000 </r>
       <r>    0.0457    0.0000 </r>
       <r>    0.1161    0.0000 </r>
       <r>    0.1539    0.0000 </r>
       <r>    0.2256    0.0000 </r>
       <r>    0.2379    0.0000 </r>
       <r>    0.2628    0.0000 </r>
       <r>    0.2944    0.0000 </r>
       <r>    0.3227    0.0000 </r>
       <r>    0.3547    0.0000 </r>
       <r>    0.3662    0.0000 </r>
       <r>    0.3835    0.0000 </r>
       <r>    0.3950    0.0000 </r>
       <r>    0.4382    0.0000 </r>
       <r>    0.4500    0.0000 </r>
       <r>    0.4613    0.0000 </r>
       <r>    0.4834    0.0000 </r>
       <r>    0.5008    0.0000 </r>
       <r>    0.5207    0.0000 </r>
       <r>    0.5259    0.0000 </r>
       <r>    0.5452    0.0000 </r>
       <r>    0.5531    0.0000 </r>
       <r>    0.5688    0.0000 </r>
       <r>    0.5802    0.0000 </r>
       <r>    0.6040    0.0000 </r>
       <r>    0.6090    0.0000 </r>
       <r>    0.6386    0.0000 </r>
       <r>    0.6575    0.0000 </r>
       <r>    0.6670    0.0000 </r>
       <r>    0.6776    0.0000 </r>
       <r>    0.6893    0.0000 </r>
       <r>    0.6957    0.0000 </r>
       <r>    0.7076    0.0000 </r>
       <r>    0.7227    0.0000 </r>
       <r>    0.7252    0.0000 </r>
       <r>    0.7337    0.0000 </r>
       <r>    0.7556    0.0000 </r>
       <r>    0.7572    0.0000 </r>
       <r>    0.7639    0.0000 </r>
       <r>    0.7874    0.0000 </r>
       <r>    0.8017    0.0000 </r>
      </set>
      <set comment="kpoint 2">
       <r>  -25.2339    1.0000 </r>
       <r>  -25.2142    1.0000 </r>
       <r>  -25.2134    1.0000 </r>
       <r>  -21.6891    1.0000 </r>
       <r>  -21.6444    1.0000 </r>
       <r>  -21.6288    1.0000 </r>
       <r>  -21.6249    1.0000 </r>
       <r>  -21.5406    1.0000 </r>
       <r>  -21.4592    1.0000 </r>
       <r>  -21.4430    1.0000 </r>
       <r>  -21.3916    1.0000 </r>
       <r>  -20.7185    1.0000 </r>
       <r>  -20.6938    1.0000 </r>
       <r>  -20.6296    1.0000 </r>
       <r>  -20.4600    1.0000 </r>
       <r>  -20.4341    1.0000 </r>
       <r>  -20.3880    1.0000 </r>
       <r>  -20.0264    1.0000 </r>
       <r>  -20.0081    1.0000 </r>
       <r>  -19.9313    1.0000 </r>
       <r>  -19.9191    1.0000 </r>
       <r>  -19.5249    1.0000 </r>
       <r>  -19.2643    1.0000 </r>
       <r>  -19.0333    1.0000 </r>
       <r>  -19.0244    1.0000 </r>
       <r>  -18.7272    1.0000 </r>
       <r>  -18.7182    1.0000 </r>
       <r>  -18.4786    1.0000 </r>
       <r>  -18.4579    1.0000 </r>
       <r>  -18.4400    1.0000 </r>
       <r>  -18.4366    1.0000 </r>
       <r>  -18.4299    1.0000 </r>
       <r>  -18.4242    1.0000 </r>
       <r>  -18.1462    1.0000 </r>
       <r>  -17.7584    1.0000 </r>
       <r>  -17.7007    1.0000 </r>
       <r>  -17.6947    1.0000 </r>
       <r>  -17.4079    1.0000 </r>
       <r>  -17.3898    1.0000 </r>
       <r>  -16.4172    1.0000 </r>
       <r>  -16.4037    1.0000 </r>
       <r>  -16.3915    1.0000 </r>
       <r>  -16.3141    1.0000 </r>
       <r>  -16.3092    1.0000 </r>
       <r>  -16.3040    1.0000 </r>
       <r>  -15.6739    1.0000 </r>
       <r>  -15.6628    1.0000 </r>
       <r>  -15.4681    1.0000 </r>
       <r>  -15.3957    1.0000 </r>
       <r>  -15.3606    1.0000 </r>
       <r>  -15.1567    1.0000 </r>
       <r>  -15.0196    1.0000 </r>
       <r>  -14.9737    1.0000 </r>
       <r>  -14.9402    1.0000 </r>
       <r>  -14.8489    1.0000 </r>
       <r>  -14.7643    1.0000 </r>
       <r>  -14.6676    1.0000 </r>
       <r>  -14.4602    1.0000 </r>
       <r>  -14.4538    1.0000 </r>
       <r>  -14.3379    1.0000 </r>
       <r>  -14.3091    1.0000 </r>
       <r>  -14.0250    1.0000 </r>
       <r>  -13.9555    1.0000 </r>
       <r>  -13.3029    1.0000 </r>
       <r>  -13.2733    1.0000 </r>
       <r>  -13.2499    1.0000 </r>
       <r>  -13.2473    1.0000 </r>
       <r>  -13.1141    1.0000 </r>
       <r>  -12.9778    1.0000 </r>
       <r>  -12.9657    1.0000 </r>
       <r>  -12.8311    1.0000 </r>
       <r>  -12.6835    1.0000 </r>
[...]
       <r>   -19.8480    20.9114    42.0000 </r>
       <r>   -19.7524     0.0000    42.0000 </r>
       <r>   -19.6568     0.0000    42.0000 </r>
       <r>   -19.5613     0.0000    42.0000 </r>
       <r>   -19.4657    10.1304    42.9680 </r>
       <r>   -19.3702    15.5145    44.8500 </r>
       <r>   -19.2746     6.9501    45.7310 </r>
       <r>   -19.1791     0.0000    46.0000 </r>
       <r>   -19.0835     0.0000    46.0000 </r>
       <r>   -18.9879    26.7498    48.5561 </r>
       <r>   -18.8924     9.5453    49.5789 </r>
       <r>   -18.7968    13.4947    51.0899 </r>
       <r>   -18.7013    28.8329    53.9886 </r>
       <r>   -18.6057     0.0000    54.0000 </r>
       <r>   -18.5102     0.0001    54.0000 </r>
       <r>   -18.4146   123.1489    65.7677 </r>
       <r>   -18.3191     0.0000    66.0000 </r>
       <r>   -18.2235     0.0000    66.0000 </r>
       <r>   -18.1279     4.4654    66.4267 </r>
       <r>   -18.0324    10.4821    67.5689 </r>
       <r>   -17.9368    10.8973    68.7756 </r>
       <r>   -17.8413     4.2941    69.4437 </r>
       <r>   -17.7457     5.1461    69.9921 </r>
       <r>   -17.6502    24.8900    72.3784 </r>
       <r>   -17.5546     5.2340    72.9342 </r>
       <r>   -17.4590    20.6171    75.0040 </r>
       <r>   -17.3635    29.6440    77.9999 </r>
       <r>   -17.2679     0.0000    78.0000 </r>
       <r>   -17.1724     0.0000    78.0000 </r>
       <r>   -17.0768     0.0000    78.0000 </r>
       <r>   -16.9813     0.0000    78.0000 </r>
       <r>   -16.8857     0.0000    78.0000 </r>
       <r>   -16.7902     0.0000    78.0000 </r>
       <r>   -16.6946     0.0000    78.0000 </r>
       <r>   -16.5990     0.0000    78.0000 </r>
       <r>   -16.5035     0.0000    78.0000 </r>
       <r>   -16.4079    22.2481    80.1259 </r>
       <r>   -16.3124    26.6945    86.1553 </r>
       <r>   -16.2168     0.0000    90.0000 </r>
       <r>   -16.1213     0.0000    90.0000 </r>
       <r>   -16.0257     0.0000    90.0000 </r>
       <r>   -15.9301     0.0000    90.0000 </r>
       <r>   -15.8346     0.0000    90.0000 </r>
       <r>   -15.7390     0.0000    90.0000 </r>
       <r>   -15.6435    29.0008    92.7712 </r>
       <r>   -15.5479    20.9709    95.0740 </r>
       <r>   -15.4524     7.9962    95.9976 </r>
       <r>   -15.3568    22.6537    98.1647 </r>
       <r>   -15.2612     8.5799    99.2199 </r>
       <r>   -15.1657    16.2318   101.5511 </r>
       <r>   -15.0701     0.0000   102.0000 </r>
       <r>   -14.9746    38.7788   105.7056 </r>
       <r>   -14.8790    20.9301   108.0000 </r>
       <r>   -14.7835    21.1923   110.0251 </r>
       <r>   -14.6879    17.6761   112.2982 </r>
       <r>   -14.5924     5.2077   114.0000 </r>
       <r>   -14.4968     0.0000   114.0000 </r>
       <r>   -14.4012    41.5128   117.9668 </r>
       <r>   -14.3057    37.5779   121.5908 </r>
       <r>   -14.2101     0.0000   122.0000 </r>
       <r>   -14.1146     0.0000   122.0000 </r>
       <r>   -14.0190     5.9718   122.5706 </r>
       <r>   -13.9235    20.9300   126.0000 </r>
       <r>   -13.8279     0.0000   126.0000 </r>
       <r>   -13.7323     0.0000   126.0000 </r>
       <r>   -13.6368     0.0000   126.0000 </r>
       <r>   -13.5412     0.0000   126.0000 </r>
       <r>   -13.4457     0.0000   126.0000 </r>
       <r>   -13.3501     0.0000   126.0000 </r>
       <r>   -13.2546    49.5133   130.7313 </r>
       <r>   -13.1590     3.7955   134.0000 </r>
       <r>   -13.0634    19.7219   135.8846 </r>
       <r>   -12.9679    32.0052   139.1263 </r>
       <r>   -12.8723     0.0000   140.0000 </r>
       <r>   -12.7768    17.8611   141.7067 </r>
       <r>   -12.6812    20.6554   143.9738 </r>
       <r>   -12.5857    38.5408   148.0176 </r>
       <r>   -12.4901    36.6827   151.9433 </r>
       <r>   -12.3946    32.3631   155.2605 </r>
       <r>   -12.2990     0.0000   156.0000 </r>
       <r>   -12.2034     0.0000   156.0000 </r>
       <r>   -12.1079     8.1326   156.7771 </r>
       <r>   -12.0123    20.3417   158.8777 </r>
       <r>   -11.9168     8.2514   159.8885 </r>
       <r>   -11.8212     0.0000   160.0000 </r>
       <r>   -11.7257    12.7478   161.2181 </r>
       <r>   -11.6301    24.0519   163.9999 </r>
       <r>   -11.5345    41.6457   167.9795 </r>
       <r>   -11.4390    27.6417   170.6413 </r>
       <r>   -11.3434     0.0000   172.0000 </r>
       <r>   -11.2479     0.0000   172.0000 </r>
       <r>   -11.1523    39.4346   175.7682 </r>
       <r>   -11.0568    20.9892   178.0059 </r>
       <r>   -10.9612    53.0425   183.0745 </r>
       <r>   -10.8656    42.8875   187.7674 </r>
       <r>   -10.7701    20.9048   190.0000 </r>
       <r>   -10.6745     0.0000   190.0000 </r>
       <r>   -10.5790    38.7154   193.6995 </r>
       <r>   -10.4834    47.9033   199.8471 </r>
       <r>   -10.3879    36.1400   204.0881 </r>
       <r>   -10.2923    46.2242   209.9894 </r>
       <r>   -10.1968    32.4252   213.0984 </r>
       <r>   -10.1012    43.6357   218.1697 </r>
       <r>   -10.0056    79.1699   228.2706 </r>
       <r>    -9.9101    16.7224   232.0003 </r>
       <r>    -9.8145    20.9268   234.0000 </r>
       <r>    -9.7190    20.7119   235.9792 </r>
       <r>    -9.6234    40.8246   239.9011 </r>
       <r>    -9.5279    20.9300   242.0000 </r>
       <r>    -9.4323    20.8408   243.9915 </r>
       <r>    -9.3367    20.9175   246.0003 </r>
       <r>    -9.2412    35.9434   249.4349 </r>
       <r>    -9.1456    28.7723   253.3510 </r>
       <r>    -9.0501    83.5955   261.9893 </r>
       <r>    -8.9545     0.0000   262.0000 </r>
       <r>    -8.8590    19.7881   263.8909 </r>
       <r>    -8.7634    20.9298   266.0000 </r>
       <r>    -8.6678    31.2683   268.9879 </r>
       <r>    -8.5723    49.7285   274.7528 </r>
       <r>    -8.4767    25.4457   278.0000 </r>
       <r>    -8.3812     0.0000   278.0000 </r>
       <r>    -8.2856    20.9324   280.0002 </r>
       <r>    -8.1901    66.8108   286.3845 </r>
       <r>    -8.0945    37.4715   291.0849 </r>
       <r>    -7.9990    44.0388   295.6084 </r>
       <r>    -7.9034    93.1807   305.0396 </r>
       <r>    -7.8078     6.3473   306.6065 </r>
       <r>    -7.7123     3.8318   308.0000 </r>
       <r>    -7.6167    13.9634   309.3343 </r>
       <r>    -7.5212    42.6969   314.0800 </r>
       <r>    -7.4256    13.9691   316.0023 </r>
       <r>    -7.3301    20.9054   318.0000 </r>
       <r>    -7.2345    41.5551   321.9709 </r>
       <r>    -7.1389    21.9006   324.0928 </r>
       <r>    -7.0434     9.4050   326.0000 </r>
       <r>    -6.9478     0.0041   326.0004 </r>
       <r>    -6.8523     8.8014   326.8414 </r>
       <r>    -6.7567    12.6616   328.2453 </r>
       <r>    -6.6612     9.4094   330.0000 </r>
       <r>    -6.5656     0.4688   330.0448 </r>
       <r>    -6.4700    14.6258   332.0000 </r>
       <r>    -6.3745    14.4467   333.3805 </r>
       <r>    -6.2789   112.7249   345.9797 </r>
       <r>    -6.1834    13.5272   347.2926 </r>
       <r>    -6.0878     0.0000   348.0000 </r>
       <r>    -5.9923     0.0000   348.0000 </r>
       <r>    -5.8967     0.0000   348.0000 </r>
       <r>    -5.8012     0.0000   348.0000 </r>
       <r>    -5.7056     0.0000   348.0000 </r>
       <r>    -5.6100     0.0000   348.0000 </r>
       <r>    -5.5145    16.7846   349.6039 </r>
       <r>    -5.4189     1.3908   350.0000 </r>
       <r>    -5.3234     7.1706   350.6852 </r>
       <r>    -5.2278     7.3168   352.0000 </r>
       <r>    -5.1323    33.1709   355.1697 </r>
       <r>    -5.0367     2.8144   356.0046 </r>
       <r>    -4.9411    40.0058   359.9913 </r>
       <r>    -4.8456    62.7696   366.0000 </r>
       <r>    -4.7500     0.0000   366.0000 </r>
       <r>    -4.6545     0.0000   366.0000 </r>
       <r>    -4.5589     0.0000   366.0000 </r>
       <r>    -4.4634     0.0000   366.0000 </r>
       <r>    -4.3678     0.0000   366.0000 </r>
       <r>    -4.2722     0.0000   366.0000 </r>
       <r>    -4.1767     0.0000   366.0000 </r>
       <r>    -4.0811     0.0000   366.0000 </r>
       <r>    -3.9856     0.0000   366.0000 </r>
       <r>    -3.8900     0.0000   366.0000 </r>
       <r>    -3.7945     0.0000   366.0000 </r>
       <r>    -3.6989     0.0000   366.0000 </r>
       <r>    -3.6034     0.0000   366.0000 </r>
       <r>    -3.5078     0.0000   366.0000 </r>
       <r>    -3.4122     0.0000   366.0000 </r>
       <r>    -3.3167     0.0000   366.0000 </r>
       <r>    -3.2211     0.0000   366.0000 </r>
       <r>    -3.1256     0.0000   366.0000 </r>
       <r>    -3.0300     0.0000   366.0000 </r>
       <r>    -2.9345     0.0000   366.0000 </r>
       <r>    -2.8389    21.4302   368.0478 </r>
       <r>    -2.7433    16.0289   370.0000 </r>
       <r>    -2.6478     4.6867   370.4478 </r>
       <r>    -2.5522     0.0000   372.0000 </r>
       <r>    -2.4567    20.9294   373.9999 </r>
       <r>    -2.3611    20.9297   376.0000 </r>
       <r>    -2.2656    35.6477   379.4064 </r>
       <r>    -2.1700    20.9300   382.0000 </r>
       <r>    -2.0744    20.7118   383.9792 </r>
       <r>    -1.9789     0.0000   384.0000 </r>
       <r>    -1.8833     0.0000   384.0000 </r>
       <r>    -1.7878     0.0000   384.0000 </r>
       <r>    -1.6922    20.9300   386.0000 </r>
       <r>    -1.5967    19.8904   387.9007 </r>
       <r>    -1.5011     0.0000   388.0000 </r>
       <r>    -1.4056     7.6408   388.7301 </r>
       <r>    -1.3100     0.0000   390.0000 </r>
       <r>    -1.2144    23.1317   392.2104 </r>
       <r>    -1.1189    59.0839   399.6459 </r>
       <r>    -1.0233    20.9299   402.0000 </r>
       <r>    -0.9278     0.0000   402.0000 </r>
       <r>    -0.8322     0.0000   402.0000 </r>
       <r>    -0.7367    20.9344   404.0004 </r>
       <r>    -0.6411    20.9257   406.0000 </r>
       <r>    -0.5455     0.0004   406.0000 </r>
       <r>    -0.4500    63.2790   412.0468 </r>
       <r>    -0.3544    22.6629   415.0696 </r>
       <r>    -0.2589    32.9250   419.1464 </r>
       <r>    -0.1633    69.5658   427.2481 </r>
       <r>    -0.0678    12.5673   429.2009 </r>
       <r>     0.0278    27.0613   431.9197 </r>
       <r>     0.1234    33.6743   435.2187 </r>
       <r>     0.2189    41.0318   439.9209 </r>
       <r>     0.3145    62.6549   447.1225 </r>
       <r>     0.4100    80.1569   455.6595 </r>
       <r>     0.5056   102.0209   466.5855 </r>
       <r>     0.6011   104.6709   478.0034 </r>
       <r>     0.6967   140.4350   492.9609 </r>
       <r>     0.7922   128.0913   508.4452 </r>
       <r>     0.8878    14.9475   512.0000 </r>
       <r>     0.9834     0.0000   512.0000 </r>
       <r>     1.0789     0.0000   512.0000 </r>
       <r>     1.1745     0.0000   512.0000 </r>
       <r>     1.2700     0.0000   512.0000 </r>
       <r>     1.3656     0.0000   512.0000 </r>
       <r>     1.4611     0.0000   512.0000 </r>
       <r>     1.5567     0.0000   512.0000 </r>
       <r>     1.6523     0.0000   512.0000 </r>
       <r>     1.7478     0.0000   512.0000 </r>
       <r>     1.8434     0.0000   512.0000 </r>
       <r>     1.9389     0.0000   512.0000 </r>
       <r>     2.0345     0.0000   512.0000 </r>
       <r>     2.1300     0.0000   512.0000 </r>
      </set>
     </set>
    </array>
   </total>
  </dos>
 </calculation>
 <structure name="finalpos" >
  <crystal>
   <varray name="basis" >
    <v>      37.61881377       0.05141020       0.00000000 </v>
    <v>     -18.73114436      32.57791494       0.00000000 </v>
    <v>       0.00000000       0.00000000      20.00000000 </v>
   </varray>
   <i name="volume">  24530.10974533 </i>
   <varray name="rec_basis" >
    <v>       0.02656157       0.01527196       0.00000000 </v>
    <v>      -0.00004192       0.03067154       0.00000000 </v>
    <v>       0.00000000       0.00000000       0.05000000 </v>
   </varray>
  </crystal>
  <varray name="positions" >
   <v>       0.48606505       0.40508326       0.50476423 </v>
   <v>       0.51602727       0.35950181       0.51586857 </v>
   <v>       0.54370913       0.17945531       0.49033346 </v>
   <v>       0.83535805       0.47864371       0.43093411 </v>
   <v>       0.91051837       0.51283798       0.42351050 </v>
   <v>       0.49878946       0.10565561       0.47864418 </v>
   <v>       0.77266937       0.42981503       0.47655675 </v>
   <v>       0.57148221       0.34744459       0.51244015 </v>
   <v>       0.65963209       0.22883056       0.51894582 </v>
   <v>       0.52316272       0.61659745       0.45595759 </v>
   <v>       0.48823904       0.65672217       0.46596054 </v>
   <v>       0.45766087       0.83519751       0.52729723 </v>
   <v>       0.16535339       0.52250333       0.45595328 </v>
   <v>       0.08999600       0.49135496       0.44667475 </v>
   <v>       0.49814154       0.91050557       0.51687656 </v>
   <v>       0.22975102       0.57419219       0.49185198 </v>
   <v>       0.43223346       0.66390266       0.49015302 </v>
   <v>       0.34128396       0.77535544       0.49594356 </v>
   <v>       0.96765228       0.51595897       0.38482735 </v>
   <v>       0.04458755       0.54910162       0.38852189 </v>
   <v>       0.57423334       0.53274749       0.41725816 </v>
   <v>       0.54150217       0.57634723       0.41472978 </v>
   <v>       0.47387412       0.04813261       0.42117904 </v>
   <v>       0.42983298       0.97203721       0.41886061 </v>
   <v>       0.60712169       0.50828707       0.47529878 </v>
   <v>       0.63678203       0.46376033       0.48616407 </v>
   <v>       0.71348805       0.41336276       0.51862301 </v>
   <v>       0.59405064       0.30548052       0.50990864 </v>
   <v>       0.70189674       0.29356169       0.52377623 </v>
   <v>       0.91046836       0.42223214       0.55554828 </v>
   <v>       0.83493093       0.38760883       0.56296552 </v>
   <v>       0.60087535       0.08578099       0.51049935 </v>
   <v>       0.64690154       0.16096578       0.52229016 </v>
   <v>       0.76853667       0.35280477       0.53803815 </v>
   <v>       0.65804876       0.42294845       0.50736804 </v>
   <v>       0.58467836       0.24098040       0.50961308 </v>
   <v>       0.41230003       0.50745925       0.51452849 </v>
   <v>       0.37710630       0.54774623       0.52532550 </v>
   <v>       0.29242177       0.59482989       0.52233107 </v>
   <v>       0.41095041       0.70414918       0.51746849 </v>
   <v>       0.30160941       0.71365050       0.52379953 </v>
   <v>       0.09724958       0.59742002       0.54238440 </v>
   <v>       0.17212558       0.62851768       0.55207308 </v>
   <v>       0.38892492       0.91384130       0.46295232 </v>
   <v>       0.34854686       0.83892571       0.47270749 </v>
   <v>       0.23679387       0.65643549       0.53236872 </v>
   <v>       0.35014528       0.58699944       0.52399675 </v>
   <v>       0.41871468       0.76947367       0.52309689 </v>
   <v>       0.98006449       0.48375667       0.53701008 </v>
   <v>       0.02061515       0.50073034       0.53842396 </v>
   <v>       0.48929654       0.47371950       0.50946722 </v>
   <v>       0.47194683       0.49688726       0.50827447 </v>
   <v>       0.53219755       0.02125343       0.51396791 </v>
   <v>       0.50882272       0.98087907       0.51280516 </v>
   <v>       0.54411655       0.45971801       0.48799153 </v>
   <v>       0.57869603       0.40781571       0.50192481 </v>
   <v>       0.53604809       0.39226777       0.50684981 </v>
   <v>       0.51903914       0.41753182       0.50046686 </v>
   <v>       0.59483155       0.37986383       0.50843411 </v>
   <v>       0.78462930       0.41107441       0.49808880 </v>
   <v>       0.85169297       0.46579618       0.45773580 </v>
   <v>       0.91590550       0.46929029       0.48791365 </v>
   <v>       0.89413748       0.48489593       0.45318525 </v>
   <v>       0.62736179       0.22021686       0.51396705 </v>
   <v>       0.55689594       0.15946022       0.49465709 </v>
   <v>       0.54676769       0.09021033       0.49252253 </v>
   <v>       0.53140897       0.11750592       0.48732713 </v>
   <v>       0.46996132       0.55858426       0.48335457 </v>
   <v>       0.42986338       0.60562856       0.49583510 </v>
   <v>       0.47126090       0.62381894       0.47619077 </v>
   <v>       0.49088213       0.60094001       0.47004568 </v>
   <v>       0.41124487       0.63145714       0.50081573 </v>
   <v>       0.21911985       0.59546473       0.50612416 </v>
   <v>       0.15048419       0.53915920       0.47466771 </v>
   <v>       0.08855364       0.54254371       0.49290833 </v>
   <v>       0.10813403       0.52162979       0.46918872 </v>
   <v>       0.37387570       0.78653446       0.50468375 </v>
   <v>       0.44232323       0.85213013       0.51253794 </v>
   <v>       0.44697326       0.91778651       0.48791424 </v>
   <v>       0.46534639       0.89444695       0.50672274 </v>
   <v>       0.04338129       0.52416802       0.48688890 </v>
   <v>       0.02547218       0.53072432       0.43006351 </v>
   <v>       0.98327393       0.51276666       0.42839148 </v>
   <v>       0.96098883       0.48938250       0.48404282 </v>
   <v>       0.49066976       0.53413716       0.47810498 </v>
   <v>       0.52781124       0.54787848       0.44330653 </v>
   <v>       0.54597449       0.52379550       0.44471120 </v>
   <v>       0.52632976       0.48666468       0.48063559 </v>
   <v>       0.47163177       0.96281239       0.48260839 </v>
   <v>       0.45821584       0.98651139       0.44758985 </v>
   <v>       0.48255068       0.02862027       0.44887490 </v>
   <v>       0.51957338       0.04565714       0.48497965 </v>
   <v>       0.58674614       0.47551399       0.48325815 </v>
   <v>       0.60364258       0.45026580       0.49014441 </v>
   <v>       0.63487052       0.39040763       0.50981507 </v>
   <v>       0.65169045       0.36286855       0.51386298 </v>
   <v>       0.62731884       0.31980086       0.51350322 </v>
   <v>       0.64459280       0.29425525       0.51701477 </v>
   <v>       0.68760200       0.31267022       0.52129952 </v>
   <v>       0.71290445       0.35541011       0.52018540 </v>
   <v>       0.69436384       0.38001659       0.51727421 </v>
   <v>       0.75742330       0.37312837       0.52055653 </v>
   <v>       0.82910192       0.43001462       0.49627828 </v>
   <v>       0.85123047       0.41472110       0.53143313 </v>
   <v>       0.89362500       0.43398494       0.52757885 </v>
   <v>       0.61708948       0.25000187       0.51377779 </v>
   <v>       0.59917026       0.17631751       0.50729014 </v>
   <v>       0.61428174       0.14875504       0.51265210 </v>
   <v>       0.58877063       0.10666925       0.50585010 </v>
   <v>       0.42859236       0.54018624       0.50347186 </v>
   <v>       0.40908616       0.56310359       0.50949769 </v>
   <v>       0.37172631       0.61954346       0.51529613 </v>
   <v>       0.35377205       0.64618700       0.51826740 </v>
   <v>       0.37757694       0.68934802       0.51811304 </v>
   <v>       0.35955243       0.71424789       0.51909013 </v>
   <v>       0.31646927       0.69505036       0.52163758 </v>
   <v>       0.29172988       0.65223062       0.52158014 </v>
   <v>       0.31097478       0.62822792       0.52071399 </v>
   <v>       0.24725930       0.63459059       0.52142437 </v>
   <v>       0.17476713       0.57819192       0.50347737 </v>
   <v>       0.15458683       0.59867458       0.52795197 </v>
   <v>       0.11230757       0.58119638       0.52267592 </v>
   <v>       0.38603887       0.75873670       0.51657525 </v>
   <v>       0.39971143       0.83088094       0.50003987 </v>
   <v>       0.38151784       0.85446589       0.48192340 </v>
   <v>       0.40451980       0.89686839       0.47589805 </v>
  </varray>
 </structure>
</modeling>
