<?xml version="1.0" encoding="ISO-8859-1"?>
<modeling>
 <generator>
  <i name="program" type="string">vasp </i>
  <i name="version" type="string">5.4.4.18Apr17-6-g9f103f2a35  </i>
  <i name="subversion" type="string">(build Jun 07 2020 16:50:00) complex            parallel </i>
  <i name="platform" type="string">LinuxIFC </i>
  <i name="date" type="string">2023 02 17 </i>
  <i name="time" type="string">11:53:15 </i>
 </generator>
 <incar>
  <i type="string" name="SYSTEM">Simulation for cell shape cell volume r</i>
  <i type="int" name="ISTART">     1</i>
  <i type="string" name="PREC">high</i>
  <i type="string" name="ALGO">48</i>
  <i type="int" name="ICHARG">    11</i>
  <i type="int" name="NELM">   200</i>
  <i type="int" name="IBRION">    -1</i>
  <i name="EDIFF">      0.00001000</i>
  <i name="EDIFFG">     -0.01000000</i>
  <i type="int" name="NSW">     0</i>
  <i type="int" name="ISIF">     2</i>
  <i name="ENCUT">    500.00000000</i>
  <i name="POTIM">      0.30000000</i>
  <i type="string" name="LREAL">A</i>
  <i type="int" name="ISMEAR">     0</i>
  <i name="SIGMA">      0.01000000</i>
  <i type="int" name="NWRITE">     0</i>
  <i type="logical" name="LWAVE"> F  </i>
  <i type="logical" name="LCHARG"> F  </i>
  <v type="int" name="KPOINT_BSE">    -1     0     0     0</v>
  <i type="int" name="NELM">   200</i>
  <i type="string" name="GGA">PE</i>
 </incar>
 <structure name="primitive_cell" >
  <crystal>
   <varray name="basis" >
    <v>      23.48997073       0.00041987       0.00000000 </v>
    <v>     -11.74445184      20.34025200       0.00000000 </v>
    <v>       0.00000000       0.00000000      20.00000000 </v>
   </varray>
   <i name="volume">   9555.93710728 </i>
   <varray name="rec_basis" >
    <v>       0.04257092       0.02458043       0.00000000 </v>
    <v>      -0.00000088       0.04916309       0.00000000 </v>
    <v>       0.00000000       0.00000000       0.05000000 </v>
   </varray>
  </crystal>
  <varray name="positions" >
   <v>      -0.46874027       0.37176867       0.49034114 </v>
   <v>       0.49768133       0.40671303       0.49103351 </v>
   <v>      -0.39935502       0.40696201       0.48994821 </v>
   <v>      -0.49851966       0.29887003       0.49015722 </v>
   <v>       0.44417524       0.37807043       0.49133445 </v>
   <v>      -0.36276231       0.37622245       0.48944832 </v>
   <v>      -0.36473841       0.47633981       0.49028777 </v>
   <v>      -0.46948108       0.47599784       0.49126992 </v>
   <v>      -0.39152215       0.32832560       0.48917831 </v>
   <v>       0.49613994       0.26591688       0.42978206 </v>
   <v>       0.49567532       0.26557610      -0.44959410 </v>
   <v>       0.49834511       0.28994036      -0.40227124 </v>
   <v>       0.49914165       0.29053098       0.38253339 </v>
   <v>      -0.40011703      -0.49060208       0.49097632 </v>
   <v>       0.49535770       0.20609372       0.42976023 </v>
   <v>       0.49486986       0.20573817      -0.44972890 </v>
   <v>      -0.29186720      -0.49383901       0.49017586 </v>
   <v>       0.49368259      -0.48780581       0.49144363 </v>
   <v>      -0.37190256      -0.43707980       0.49121740 </v>
   <v>       0.39609982       0.42524199       0.49144264 </v>
   <v>      -0.49982686       0.17817077       0.48999448 </v>
   <v>       0.42431391       0.47876939       0.49129310 </v>
   <v>      -0.28362496      -0.49240463       0.38260774 </v>
   <v>      -0.28299581      -0.48988235      -0.40227862 </v>
   <v>      -0.25922323      -0.48942693       0.42998320 </v>
   <v>      -0.25886206      -0.48802683      -0.44951988 </v>
   <v>       0.49802802       0.18440455       0.38243690 </v>
   <v>       0.49709097       0.18374013      -0.40243672 </v>
   <v>      -0.36995138       0.23703202       0.48877466 </v>
   <v>      -0.25017657       0.39775024       0.49089243 </v>
   <v>      -0.47348899      -0.41851257       0.49131886 </v>
   <v>      -0.41997630      -0.38988779       0.49152803 </v>
   <v>      -0.32206280       0.25618550       0.48904476 </v>
   <v>      -0.47011424       0.13502215       0.49006359 </v>
   <v>      -0.20018975      -0.49019836       0.43017690 </v>
   <v>      -0.19982898      -0.48883232      -0.44921625 </v>
   <v>      -0.23103099       0.36900759       0.49123265 </v>
   <v>      -0.40075222       0.16969242       0.48956596 </v>
   <v>       0.38891480      -0.48818830       0.49081846 </v>
   <v>      -0.17248014      -0.49514468       0.49066306 </v>
   <v>       0.49291660      -0.38358417       0.49082690 </v>
   <v>      -0.17865705      -0.49350795       0.38299757 </v>
   <v>      -0.17802285      -0.49104931      -0.40178464 </v>
   <v>       0.42352154      -0.41881687       0.49044266 </v>
   <v>       0.31604068       0.48196098       0.49054479 </v>
   <v>       0.49674778       0.06658318       0.49085369 </v>
   <v>      -0.16368871       0.40558540       0.49121135 </v>
   <v>       0.44322258       0.04134954       0.49117057 </v>
   <v>      -0.12942359       0.47499007       0.49106744 </v>
   <v>      -0.36561284       0.13543291       0.49022813 </v>
   <v>       0.30683873       0.47838302      -0.40193387 </v>
   <v>       0.30821668       0.48028899       0.38296895 </v>
   <v>       0.28282551       0.47627669      -0.44932765 </v>
   <v>       0.28356998       0.47733284       0.43017261 </v>
   <v>      -0.29271235       0.17854484       0.49027425 </v>
   <v>      -0.47738192      -0.31068732       0.49061390 </v>
   <v>      -0.25967303       0.20667233       0.43006219 </v>
   <v>      -0.25950939       0.20557528      -0.44931971 </v>
   <v>      -0.28418521       0.18546731       0.38266480 </v>
   <v>      -0.28387469       0.18351003      -0.40209797 </v>
   <v>       0.38692925      -0.38807850       0.48983924 </v>
   <v>      -0.19987998       0.26573353       0.43041894 </v>
   <v>      -0.17209185       0.29802522       0.49088936 </v>
   <v>      -0.19972048       0.26466188      -0.44907451 </v>
   <v>      -0.12900547       0.37090043       0.49127445 </v>
   <v>      -0.46992911       0.03053667       0.49125013 </v>
   <v>      -0.47583874      -0.30264481       0.38297545 </v>
   <v>      -0.47345375      -0.30137654      -0.40180416 </v>
   <v>      -0.40063450       0.06690375       0.49112975 </v>
   <v>      -0.17806033       0.29045821       0.38327500 </v>
   <v>      -0.17779782       0.28851540      -0.40162668 </v>
   <v>      -0.47253964      -0.27792474       0.43022997 </v>
   <v>      -0.47117698      -0.27721899      -0.44916042 </v>
   <v>      -0.06089208      -0.49150560       0.49105754 </v>
   <v>       0.41565961      -0.34018704       0.48934337 </v>
   <v>       0.22367205       0.47684685      -0.44942870 </v>
   <v>       0.22445997       0.47796451       0.42995689 </v>
   <v>      -0.03595655      -0.43798860       0.49082175 </v>
   <v>       0.39588295      -0.05395871       0.49175762 </v>
   <v>      -0.37208333       0.04193673       0.49176678 </v>
   <v>      -0.06057865       0.40620951       0.49135968 </v>
   <v>       0.49374841      -0.04250532       0.49140406 </v>
   <v>       0.19645914       0.48291898       0.49023798 </v>
   <v>      -0.02452011       0.47557492       0.49124366 </v>
   <v>       0.20164748       0.47909194      -0.40215592 </v>
   <v>       0.20311129       0.48115703       0.38260287 </v>
   <v>       0.42446265      -0.07888911       0.49145841 </v>
   <v>       0.27418512      -0.41006965       0.48987692 </v>
   <v>      -0.47189790      -0.21817587       0.43024019 </v>
   <v>      -0.47043157      -0.21740517      -0.44925252 </v>
   <v>      -0.03536281       0.37790734       0.49145310 </v>
   <v>      -0.47625128      -0.19006477       0.49053929 </v>
   <v>      -0.47502541      -0.19668067       0.38296757 </v>
   <v>      -0.47228897      -0.19523901      -0.40193058 </v>
   <v>      -0.47292805      -0.07854310       0.49113085 </v>
   <v>      -0.41940654      -0.05328015       0.49107060 </v>
   <v>       0.25502748      -0.38133352       0.49001173 </v>
   <v>       0.05939509      -0.39008598       0.49154121 </v>
   <v>       0.04851061      -0.48776457       0.49104637 </v>
   <v>       0.39382657      -0.24900526       0.49005254 </v>
   <v>       0.15337367      -0.48724613       0.49034713 </v>
   <v>       0.38944866      -0.14742431       0.49103122 </v>
   <v>       0.34594273      -0.26819045       0.49019412 </v>
   <v>       0.08459617      -0.41840161       0.49109499 </v>
   <v>       0.18769136      -0.41783068       0.49027049 </v>
   <v>       0.31654636      -0.19057303       0.49098099 </v>
   <v>       0.05989089       0.42575430       0.49071892 </v>
   <v>       0.49396182      -0.14698142       0.49075746 </v>
   <v>       0.30804169      -0.19638166       0.38335959 </v>
   <v>       0.30762035      -0.19656198      -0.40140615 </v>
   <v>       0.42459234      -0.18167485       0.49058193 </v>
   <v>       0.08484428       0.47927543       0.49070786 </v>
   <v>       0.28354452      -0.21813711       0.43061255 </v>
   <v>       0.28334224      -0.21824954      -0.44876813 </v>
   <v>       0.15303429      -0.38311512       0.49065493 </v>
   <v>       0.22383921      -0.27729431       0.43054765 </v>
   <v>       0.22365490      -0.27743709      -0.44894395 </v>
   <v>       0.19610917      -0.31023672       0.49074671 </v>
   <v>       0.20209519      -0.30152378       0.38319034 </v>
   <v>       0.20177760      -0.30181329      -0.40167594 </v>
  </varray>
 </structure>
 <varray name="primitive_index" >
  <v type="int" >        1 </v>
  <v type="int" >        2 </v>
  <v type="int" >       10 </v>
  <v type="int" >        4 </v>
  <v type="int" >       73 </v>
  <v type="int" >      115 </v>
  <v type="int" >        9 </v>
  <v type="int" >        7 </v>
  <v type="int" >       79 </v>
  <v type="int" >        3 </v>
  <v type="int" >       11 </v>
  <v type="int" >       77 </v>
  <v type="int" >       74 </v>
  <v type="int" >        8 </v>
  <v type="int" >       15 </v>
  <v type="int" >       23 </v>
  <v type="int" >        6 </v>
  <v type="int" >       61 </v>
  <v type="int" >       76 </v>
  <v type="int" >      108 </v>
  <v type="int" >       16 </v>
  <v type="int" >       64 </v>
  <v type="int" >       75 </v>
  <v type="int" >       78 </v>
  <v type="int" >        5 </v>
  <v type="int" >       12 </v>
  <v type="int" >       83 </v>
  <v type="int" >       86 </v>
  <v type="int" >      116 </v>
  <v type="int" >       81 </v>
  <v type="int" >       49 </v>
  <v type="int" >       99 </v>
  <v type="int" >       80 </v>
  <v type="int" >       20 </v>
  <v type="int" >       17 </v>
  <v type="int" >       24 </v>
  <v type="int" >      117 </v>
  <v type="int" >       21 </v>
  <v type="int" >       63 </v>
  <v type="int" >       18 </v>
  <v type="int" >       50 </v>
  <v type="int" >       84 </v>
  <v type="int" >       87 </v>
  <v type="int" >       62 </v>
  <v type="int" >       60 </v>
  <v type="int" >       19 </v>
  <v type="int" >       22 </v>
  <v type="int" >       85 </v>
  <v type="int" >       13 </v>
  <v type="int" >       25 </v>
  <v type="int" >      114 </v>
  <v type="int" >      107 </v>
  <v type="int" >       72 </v>
  <v type="int" >       57 </v>
  <v type="int" >       31 </v>
  <v type="int" >       55 </v>
  <v type="int" >       30 </v>
  <v type="int" >       45 </v>
  <v type="int" >       89 </v>
  <v type="int" >       94 </v>
  <v type="int" >      118 </v>
  <v type="int" >       29 </v>
  <v type="int" >       32 </v>
  <v type="int" >       46 </v>
  <v type="int" >       41 </v>
  <v type="int" >       37 </v>
  <v type="int" >      104 </v>
  <v type="int" >      111 </v>
  <v type="int" >       26 </v>
  <v type="int" >       90 </v>
  <v type="int" >       95 </v>
  <v type="int" >       54 </v>
  <v type="int" >       69 </v>
  <v type="int" >       14 </v>
  <v type="int" >       98 </v>
  <v type="int" >       71 </v>
  <v type="int" >       58 </v>
  <v type="int" >       82 </v>
  <v type="int" >       88 </v>
  <v type="int" >      101 </v>
  <v type="int" >       40 </v>
  <v type="int" >       38 </v>
  <v type="int" >       59 </v>
  <v type="int" >       39 </v>
  <v type="int" >      113 </v>
  <v type="int" >      106 </v>
  <v type="int" >       27 </v>
  <v type="int" >      102 </v>
  <v type="int" >       53 </v>
  <v type="int" >       70 </v>
  <v type="int" >      110 </v>
  <v type="int" >       56 </v>
  <v type="int" >      105 </v>
  <v type="int" >      112 </v>
  <v type="int" >       67 </v>
  <v type="int" >      109 </v>
  <v type="int" >      120 </v>
  <v type="int" >       93 </v>
  <v type="int" >       42 </v>
  <v type="int" >      119 </v>
  <v type="int" >       52 </v>
  <v type="int" >       28 </v>
  <v type="int" >      100 </v>
  <v type="int" >       44 </v>
  <v type="int" >       68 </v>
  <v type="int" >       35 </v>
  <v type="int" >      103 </v>
  <v type="int" >       66 </v>
  <v type="int" >       91 </v>
  <v type="int" >       96 </v>
  <v type="int" >       65 </v>
  <v type="int" >       51 </v>
  <v type="int" >       34 </v>
  <v type="int" >       47 </v>
  <v type="int" >       43 </v>
  <v type="int" >       33 </v>
  <v type="int" >       48 </v>
  <v type="int" >       36 </v>
  <v type="int" >       92 </v>
  <v type="int" >       97 </v>
 </varray>
 <kpoints>
  <generation param="listgenerated">
   <i name="divisions" type="int">      20 </i>
   <v>       0.00000000       0.00000000       0.00000000 </v>
   <v>       0.50000000       0.00000000       0.00000000 </v>
   <v>       0.33333333       0.33333333       0.00000000 </v>
   <v>       0.00000000       0.00000000       0.00000000 </v>
  </generation>
  <varray name="kpointlist" >
   <v>       0.00000000       0.00000000       0.00000000 </v>
   <v>       0.02631579       0.00000000       0.00000000 </v>
   <v>       0.05263158       0.00000000       0.00000000 </v>
   <v>       0.07894737       0.00000000       0.00000000 </v>
   <v>       0.10526316       0.00000000       0.00000000 </v>
   <v>       0.13157895       0.00000000       0.00000000 </v>
   <v>       0.15789474       0.00000000       0.00000000 </v>
   <v>       0.18421053       0.00000000       0.00000000 </v>
   <v>       0.21052632       0.00000000       0.00000000 </v>
   <v>       0.23684211       0.00000000       0.00000000 </v>
   <v>       0.26315789       0.00000000       0.00000000 </v>
   <v>       0.28947368       0.00000000       0.00000000 </v>
   <v>       0.31578947       0.00000000       0.00000000 </v>
   <v>       0.34210526       0.00000000       0.00000000 </v>
   <v>       0.36842105       0.00000000       0.00000000 </v>
   <v>       0.39473684       0.00000000       0.00000000 </v>
   <v>       0.42105263       0.00000000       0.00000000 </v>
   <v>       0.44736842       0.00000000       0.00000000 </v>
   <v>       0.47368421       0.00000000       0.00000000 </v>
   <v>       0.50000000       0.00000000       0.00000000 </v>
   <v>       0.50000000       0.00000000       0.00000000 </v>
   <v>       0.49122807       0.01754386       0.00000000 </v>
   <v>       0.48245614       0.03508772       0.00000000 </v>
   <v>       0.47368421       0.05263158       0.00000000 </v>
   <v>       0.46491228       0.07017544       0.00000000 </v>
   <v>       0.45614035       0.08771930       0.00000000 </v>
   <v>       0.44736842       0.10526316       0.00000000 </v>
   <v>       0.43859649       0.12280702       0.00000000 </v>
   <v>       0.42982456       0.14035088       0.00000000 </v>
   <v>       0.42105263       0.15789474       0.00000000 </v>
   <v>       0.41228070       0.17543860       0.00000000 </v>
   <v>       0.40350877       0.19298246       0.00000000 </v>
   <v>       0.39473684       0.21052632       0.00000000 </v>
   <v>       0.38596491       0.22807018       0.00000000 </v>
   <v>       0.37719298       0.24561404       0.00000000 </v>
   <v>       0.36842105       0.26315789       0.00000000 </v>
   <v>       0.35964912       0.28070175       0.00000000 </v>
   <v>       0.35087719       0.29824561       0.00000000 </v>
   <v>       0.34210526       0.31578947       0.00000000 </v>
   <v>       0.33333333       0.33333333       0.00000000 </v>
   <v>       0.33333333       0.33333333       0.00000000 </v>
   <v>       0.31578947       0.31578947       0.00000000 </v>
   <v>       0.29824561       0.29824561       0.00000000 </v>
   <v>       0.28070175       0.28070175       0.00000000 </v>
   <v>       0.26315789       0.26315789       0.00000000 </v>
   <v>       0.24561404       0.24561404       0.00000000 </v>
   <v>       0.22807018       0.22807018       0.00000000 </v>
   <v>       0.21052632       0.21052632       0.00000000 </v>
   <v>       0.19298246       0.19298246       0.00000000 </v>
   <v>       0.17543860       0.17543860       0.00000000 </v>
   <v>       0.15789474       0.15789474       0.00000000 </v>
   <v>       0.14035088       0.14035088       0.00000000 </v>
   <v>       0.12280702       0.12280702       0.00000000 </v>
   <v>       0.10526316       0.10526316       0.00000000 </v>
   <v>       0.08771930       0.08771930       0.00000000 </v>
   <v>       0.07017544       0.07017544       0.00000000 </v>
   <v>       0.05263158       0.05263158       0.00000000 </v>
   <v>       0.03508772       0.03508772       0.00000000 </v>
   <v>       0.01754386       0.01754386       0.00000000 </v>
   <v>       0.00000000       0.00000000       0.00000000 </v>
  </varray>
  <varray name="weights" >
   <v>       0.01666667 </v>
   <v>       0.01666667 </v>
   <v>       0.01666667 </v>
   <v>       0.01666667 </v>
   <v>       0.01666667 </v>
   <v>       0.01666667 </v>
   <v>       0.01666667 </v>
   <v>       0.01666667 </v>
   <v>       0.01666667 </v>
   <v>       0.01666667 </v>
   <v>       0.01666667 </v>
   <v>       0.01666667 </v>
   <v>       0.01666667 </v>
   <v>       0.01666667 </v>
   <v>       0.01666667 </v>
   <v>       0.01666667 </v>
   <v>       0.01666667 </v>
   <v>       0.01666667 </v>
   <v>       0.01666667 </v>
   <v>       0.01666667 </v>
   <v>       0.01666667 </v>
   <v>       0.01666667 </v>
   <v>       0.01666667 </v>
   <v>       0.01666667 </v>
   <v>       0.01666667 </v>
   <v>       0.01666667 </v>
   <v>       0.01666667 </v>
   <v>       0.01666667 </v>
   <v>       0.01666667 </v>
   <v>       0.01666667 </v>
   <v>       0.01666667 </v>
   <v>       0.01666667 </v>
   <v>       0.01666667 </v>
   <v>       0.01666667 </v>
   <v>       0.01666667 </v>
   <v>       0.01666667 </v>
   <v>       0.01666667 </v>
   <v>       0.01666667 </v>
   <v>       0.01666667 </v>
   <v>       0.01666667 </v>
   <v>       0.01666667 </v>
   <v>       0.01666667 </v>
   <v>       0.01666667 </v>
   <v>       0.01666667 </v>
   <v>       0.01666667 </v>
   <v>       0.01666667 </v>
   <v>       0.01666667 </v>
   <v>       0.01666667 </v>
   <v>       0.01666667 </v>
   <v>       0.01666667 </v>
   <v>       0.01666667 </v>
   <v>       0.01666667 </v>
   <v>       0.01666667 </v>
   <v>       0.01666667 </v>
   <v>       0.01666667 </v>
   <v>       0.01666667 </v>
   <v>       0.01666667 </v>
   <v>       0.01666667 </v>
   <v>       0.01666667 </v>
   <v>       0.01666667 </v>
  </varray>
 </kpoints>
 <parameters>
  <separator name="general" >
   <i type="string" name="SYSTEM">Simulation for cell shape cell volume r</i>
   <i type="logical" name="LCOMPAT"> F  </i>
  </separator>
  <separator name="electronic" >
   <i type="string" name="PREC">high</i>
   <i name="ENMAX">    500.00000000</i>
   <i name="ENAUG">    644.87300000</i>
   <i name="EDIFF">      0.00001000</i>
   <i type="int" name="IALGO">    38</i>
   <i type="int" name="IWAVPR">    10</i>
   <i type="int" name="NBANDS">   256</i>
   <i name="NELECT">    366.00000000</i>
   <i type="int" name="TURBO">     0</i>
   <i type="int" name="IRESTART">     0</i>
   <i type="int" name="NREBOOT">     0</i>
   <i type="int" name="NMIN">     0</i>
   <i name="EREF">      0.00000000</i>
   <separator name="electronic smearing" >
    <i type="int" name="ISMEAR">     0</i>
    <i name="SIGMA">      0.01000000</i>
    <i name="KSPACING">      0.50000000</i>
    <i type="logical" name="KGAMMA"> T  </i>
   </separator>
   <separator name="electronic projectors" >
    <i type="logical" name="LREAL"> T  </i>
    <v name="ROPT">     -0.00040000     -0.00040000     -0.00040000</v>
    <i type="int" name="LMAXPAW">  -100</i>
    <i type="int" name="LMAXMIX">     2</i>
    <i type="logical" name="NLSPLINE"> F  </i>
   </separator>
   <separator name="electronic startup" >
    <i type="int" name="ISTART">     1</i>
    <i type="int" name="ICHARG">    11</i>
    <i type="int" name="INIWAV">     1</i>
   </separator>
   <separator name="electronic spin" >
    <i type="int" name="ISPIN">     1</i>
    <i type="logical" name="LNONCOLLINEAR"> F  </i>
    <v name="MAGMOM">      1.00000000      1.00000000      1.00000000      1.00000000      1.00000000      1.00000000      1.00000000      1.00000000      1.00000000      1.00000000      1.00000000      1.00000000      1.00000000      1.00000000      1.00000000      1.00000000      1.00000000      1.00000000      1.00000000      1.00000000
      1.00000000      1.00000000      1.00000000      1.00000000      1.00000000      1.00000000      1.00000000      1.00000000      1.00000000      1.00000000      1.00000000      1.00000000      1.00000000      1.00000000      1.00000000      1.00000000      1.00000000      1.00000000      1.00000000      1.00000000
      1.00000000      1.00000000      1.00000000      1.00000000      1.00000000      1.00000000      1.00000000      1.00000000      1.00000000      1.00000000      1.00000000      1.00000000      1.00000000      1.00000000      1.00000000      1.00000000      1.00000000      1.00000000      1.00000000      1.00000000
      1.00000000      1.00000000      1.00000000      1.00000000      1.00000000      1.00000000      1.00000000      1.00000000      1.00000000      1.00000000      1.00000000      1.00000000      1.00000000      1.00000000      1.00000000      1.00000000      1.00000000      1.00000000      1.00000000      1.00000000
      1.00000000      1.00000000      1.00000000      1.00000000      1.00000000      1.00000000      1.00000000      1.00000000      1.00000000      1.00000000      1.00000000      1.00000000      1.00000000      1.00000000      1.00000000      1.00000000      1.00000000      1.00000000      1.00000000      1.00000000
      1.00000000      1.00000000      1.00000000      1.00000000      1.00000000      1.00000000      1.00000000      1.00000000      1.00000000      1.00000000      1.00000000      1.00000000      1.00000000      1.00000000      1.00000000      1.00000000      1.00000000      1.00000000      1.00000000      1.00000000
</v>
    <i name="NUPDOWN">     -1.00000000</i>
    <i type="logical" name="LSORBIT"> F  </i>
    <v name="SAXIS">      0.00000000      0.00000000      1.00000000</v>
    <i type="logical" name="LSPIRAL"> F  </i>
    <v name="QSPIRAL">      0.00000000      0.00000000      0.00000000</v>
    <i type="logical" name="LZEROZ"> F  </i>
   </separator>
   <separator name="electronic exchange-correlation" >
    <i type="logical" name="LASPH"> F  </i>
    <i type="logical" name="LMETAGGA"> F  </i>
   </separator>
   <separator name="electronic convergence" >
    <i type="int" name="NELM">   200</i>
    <i type="int" name="NELMDL">     0</i>
    <i type="int" name="NELMIN">     2</i>
    <i name="ENINI">    500.00000000</i>
    <separator name="electronic convergence detail" >
     <i type="logical" name="LDIAG"> T  </i>
     <i type="logical" name="LSUBROT"> F  </i>
     <i name="WEIMIN">      0.00000000</i>
     <i name="EBREAK">      0.00000001</i>
     <i name="DEPER">      0.30000000</i>
     <i type="int" name="NRMM">     4</i>
     <i name="TIME">      0.40000000</i>
    </separator>
   </separator>
   <separator name="electronic mixer" >
    <i name="AMIX">      0.40000000</i>
    <i name="BMIX">      1.00000000</i>
    <i name="AMIN">      0.10000000</i>
    <i name="AMIX_MAG">      1.60000000</i>
    <i name="BMIX_MAG">      1.00000000</i>
    <separator name="electronic mixer details" >
     <i type="int" name="IMIX">     4</i>
     <i type="logical" name="MIXFIRST"> F  </i>
     <i type="int" name="MAXMIX">   -45</i>
     <i name="WC">    100.00000000</i>
     <i type="int" name="INIMIX">     1</i>
     <i type="int" name="MIXPRE">     1</i>
     <i type="int" name="MREMOVE">     5</i>
    </separator>
   </separator>
   <separator name="electronic dipolcorrection" >
    <i type="logical" name="LDIPOL"> F  </i>
    <i type="logical" name="LMONO"> F  </i>
    <i type="int" name="IDIPOL">     0</i>
    <i name="EPSILON">      1.00000000</i>
    <v name="DIPOL">   -100.00000000   -100.00000000   -100.00000000</v>
    <i name="EFIELD">      0.00000000</i>
   </separator>
  </separator>
  <separator name="grids" >
   <i type="int" name="NGX">   180</i>
   <i type="int" name="NGY">   180</i>
   <i type="int" name="NGZ">   150</i>
   <i type="int" name="NGXF">   270</i>
   <i type="int" name="NGYF">   270</i>
   <i type="int" name="NGZF">   224</i>
   <i type="logical" name="ADDGRID"> F  </i>
  </separator>
  <separator name="ionic" >
   <i type="int" name="NSW">     0</i>
   <i type="int" name="IBRION">    -1</i>
   <i type="int" name="MDALGO">     0</i>
   <i type="int" name="ISIF">     2</i>
   <i name="PSTRESS">      0.00000000</i>
   <i name="EDIFFG">     -0.01000000</i>
   <i type="int" name="NFREE">     0</i>
   <i name="POTIM">      0.30000000</i>
   <i name="SMASS">     -3.00000000</i>
   <i name="SCALEE">      1.00000000</i>
  </separator>
  <separator name="ionic md" >
   <i name="TEBEG">      0.00010000</i>
   <i name="TEEND">      0.00010000</i>
   <i type="int" name="NBLOCK">     1</i>
   <i type="int" name="KBLOCK">     1</i>
   <i type="int" name="NPACO">   256</i>
   <i name="APACO">     16.00000000</i>
  </separator>
  <separator name="symmetry" >
   <i type="int" name="ISYM">     2</i>
   <i name="SYMPREC">      0.00001000</i>
  </separator>
  <separator name="dos" >
   <i type="int" name="LORBIT">     0</i>
   <v name="RWIGS">     -1.00000000     -1.00000000     -1.00000000</v>
   <i type="int" name="NEDOS">   301</i>
   <i name="EMIN">     10.00000000</i>
   <i name="EMAX">    -10.00000000</i>
   <i name="EFERMI">      0.00000000</i>
  </separator>
  <separator name="writing" >
   <i type="int" name="NWRITE">     0</i>
   <i type="logical" name="LWAVE"> F  </i>
   <i type="logical" name="LDOWNSAMPLE"> F  </i>
   <i type="logical" name="LCHARG"> F  </i>
   <i type="logical" name="LPARD"> F  </i>
   <i type="logical" name="LVTOT"> F  </i>
   <i type="logical" name="LVHAR"> F  </i>
   <i type="logical" name="LELF"> F  </i>
   <i type="logical" name="LOPTICS"> F  </i>
   <v name="STM">      0.00000000      0.00000000      0.00000000      0.00000000      0.00000000      0.00000000      0.00000000</v>
  </separator>
  <separator name="performance" >
   <i type="int" name="NPAR">    16</i>
   <i type="int" name="NSIM">     4</i>
   <i type="int" name="NBLK">    -1</i>
   <i type="logical" name="LPLANE"> T  </i>
   <i type="logical" name="LSCALAPACK"> T  </i>
   <i type="logical" name="LSCAAWARE"> F  </i>
   <i type="logical" name="LSCALU"> F  </i>
   <i type="logical" name="LASYNC"> F  </i>
   <i type="logical" name="LORBITALREAL"> F  </i>
  </separator>
  <separator name="miscellaneous" >
   <i type="int" name="IDIOT">     3</i>
   <i type="int" name="ISPECIAL">     0</i>
   <i type="logical" name="LMUSIC"> F  </i>
   <v name="POMASS">     12.01100000      1.00000000     16.00000000</v>
   <v name="DARWINR">      0.00000000      0.00000000      0.00000000</v>
   <v name="DARWINV">      1.00000000      1.00000000      1.00000000</v>
   <i type="logical" name="LCORR"> T  </i>
  </separator>
  <i type="logical" name="GGA_COMPAT"> T  </i>
  <i type="logical" name="LBERRY"> F  </i>
  <i type="int" name="ICORELEVEL">     0</i>
  <i type="logical" name="LDAU"> F  </i>
  <i type="int" name="I_CONSTRAINED_M">     0</i>
  <separator name="electronic exchange-correlation" >
   <i type="string" name="GGA">PE</i>
   <i type="int" name="VOSKOWN">     0</i>
   <i type="logical" name="LHFCALC"> F  </i>
   <i type="string" name="PRECFOCK"></i>
   <i type="logical" name="LSYMGRAD"> F  </i>
   <i type="logical" name="LHFONE"> F  </i>
   <i type="logical" name="LRHFCALC"> F  </i>
   <i type="logical" name="LTHOMAS"> F  </i>
   <i type="logical" name="LMODELHF"> F  </i>
   <i name="ENCUT4O">     -1.00000000</i>
   <i type="int" name="EXXOEP">     0</i>
   <i type="int" name="FOURORBIT">     0</i>
   <i name="AEXX">      0.00000000</i>
   <i name="HFALPHA">      0.00000000</i>
   <i name="MCALPHA">      0.00000000</i>
   <i name="ALDAX">      1.00000000</i>
   <i name="AGGAX">      1.00000000</i>
   <i name="ALDAC">      1.00000000</i>
   <i name="AGGAC">      1.00000000</i>
   <i type="int" name="NKREDX">     1</i>
   <i type="int" name="NKREDY">     1</i>
   <i type="int" name="NKREDZ">     1</i>
   <i type="logical" name="SHIFTRED"> F  </i>
   <i type="logical" name="ODDONLY"> F  </i>
   <i type="logical" name="EVENONLY"> F  </i>
   <i type="int" name="LMAXFOCK">     0</i>
   <i type="int" name="NMAXFOCKAE">     0</i>
   <i type="logical" name="LFOCKAEDFT"> F  </i>
   <i name="HFSCREEN">      0.00000000</i>
   <i name="HFSCREENC">      0.00000000</i>
   <i type="int" name="NBANDSGWLOW">     0</i>
  </separator>
  <separator name="vdW DFT" >
   <i type="logical" name="LUSE_VDW"> F  </i>
   <i name="Zab_VDW">     -0.84910000</i>
   <i name="PARAM1">      0.12340000</i>
   <i name="PARAM2">      1.00000000</i>
   <i name="PARAM3">      0.00000000</i>
  </separator>
  <separator name="model GW" >
   <i type="int" name="MODEL_GW">     0</i>
   <i name="MODEL_EPS0">     47.77968554</i>
   <i name="MODEL_ALPHA">      1.00000000</i>
  </separator>
  <separator name="linear response parameters" >
   <i type="logical" name="LEPSILON"> F  </i>
   <i type="logical" name="LRPA"> F  </i>
   <i type="logical" name="LNABLA"> F  </i>
   <i type="logical" name="LVEL"> F  </i>
   <i type="int" name="KINTER">     0</i>
   <i name="CSHIFT">      0.10000000</i>
   <i name="OMEGAMAX">     -1.00000000</i>
   <i name="DEG_THRESHOLD">      0.00200000</i>
   <i name="RTIME">     -0.10000000</i>
   <i name="WPLASMAI">      0.00000000</i>
   <v name="DFIELD">      0.00000000      0.00000000      0.00000000</v>
   <v name="WPLASMA">      0.00000000      0.00000000      0.00000000      0.00000000      0.00000000      0.00000000      0.00000000      0.00000000      0.00000000</v>
  </separator>
  <separator name="orbital magnetization" >
   <i type="logical" name="NUCIND"> F  </i>
   <v name="MAGPOS">      0.00000000      0.00000000      0.00000000</v>
   <i type="logical" name="LNICSALL"> T  </i>
   <i type="logical" name="ORBITALMAG"> F  </i>
   <i type="logical" name="LMAGBLOCH"> F  </i>
   <i type="logical" name="LCHIMAG"> F  </i>
   <i type="logical" name="LGAUGE"> T  </i>
   <i type="int" name="MAGATOM">     0</i>
   <v name="MAGDIPOL">      0.00000000      0.00000000      0.00000000</v>
   <v name="AVECCONST">      0.00000000      0.00000000      0.00000000</v>
  </separator>
  <separator name="response functions" >
   <i type="logical" name="LADDER"> F  </i>
   <i type="logical" name="LRPAFORCE"> F  </i>
   <i type="logical" name="LFXC"> F  </i>
   <i type="logical" name="LHARTREE"> T  </i>
   <i type="int" name="IBSE">     0</i>
   <v type="int" name="KPOINT">    -1     0     0     0</v>
   <i type="logical" name="LTCTE"> F  </i>
   <i type="logical" name="LTETE"> F  </i>
   <i type="logical" name="LTRIPLET"> F  </i>
   <i type="logical" name="LFXCEPS"> F  </i>
   <i type="logical" name="LFXHEG"> F  </i>
   <i type="int" name="NATURALO">     2</i>
   <i type="logical" name="L2ORDER"> F  </i>
   <i type="logical" name="LMP2LT"> F  </i>
   <i type="logical" name="LUSEW"> F  </i>
   <i name="ENCUTGW">     -2.00000000</i>
   <i name="ENCUTGWSOFT">     -2.00000000</i>
   <i name="ENCUTLF">     -1.00000000</i>
   <i type="int" name="LMAXMP2">    -1</i>
   <i name="SCISSOR">      0.00000000</i>
   <i type="int" name="NOMEGA">     0</i>
   <i type="int" name="NOMEGAR">     0</i>
   <i type="int" name="NBANDSGW">    -1</i>
   <i type="int" name="NBANDSO">    -1</i>
   <i type="int" name="NBANDSV">    -1</i>
   <i type="int" name="NELM">   200</i>
   <i type="int" name="NELMHF">     1</i>
   <i type="int" name="DIM">     3</i>
   <i type="int" name="ANTIRES">     0</i>
   <i name="OMEGAMAX">    -30.00000000</i>
   <i name="OMEGAMIN">    -30.00000000</i>
   <i name="OMEGATL">   -200.00000000</i>
   <i type="int" name="OMEGAGRID">   140</i>
   <i name="CSHIFT">     -0.10000000</i>
   <i type="logical" name="SELFENERGY"> F  </i>
   <i type="logical" name="LSPECTRAL"> F  </i>
   <i type="logical" name="LSPECTRALGW"> F  </i>
   <i type="logical" name="LSINGLES"> F  </i>
   <i type="logical" name="LFERMIGW"> F  </i>
   <i type="logical" name="ODDONLYGW"> F  </i>
   <i type="logical" name="EVENONLYGW"> F  </i>
   <i type="int" name="NKREDLFX">     1</i>
   <i type="int" name="NKREDLFY">     1</i>
   <i type="int" name="NKREDLFZ">     1</i>
   <i type="int" name="MAXMEM">  2800</i>
   <i type="int" name="TELESCOPE">     0</i>
   <i type="int" name="TAUPAR">     1</i>
   <i type="int" name="OMEGAPAR">    -1</i>
   <i name="LAMBDA">      1.00000000</i>
  </separator>
  <separator name="External order field" >
   <i name="OFIELD_KAPPA">      0.00000000</i>
   <v name="OFIELD_K">      0.00000000      0.00000000      0.00000000</v>
   <i name="OFIELD_Q6_NEAR">      0.00000000</i>
   <i name="OFIELD_Q6_FAR">      0.00000000</i>
   <i name="OFIELD_A">      0.00000000</i>
  </separator>
  <separator name="solvation model" >
   <i type="logical" name="LSOL"> F  </i>
  </separator>
 </parameters>
 <atominfo>
  <atoms>     120 </atoms>
  <types>       3 </types>
  <array name="atoms" >
   <dimension dim="1">ion</dimension>
   <field type="string">element</field>
   <field type="int">atomtype</field>
   <set>
    <rc><c>C </c><c>   1</c></rc>
    <rc><c>C </c><c>   1</c></rc>
    <rc><c>C </c><c>   1</c></rc>
    <rc><c>C </c><c>   1</c></rc>
    <rc><c>C </c><c>   1</c></rc>
    <rc><c>C </c><c>   1</c></rc>
    <rc><c>C </c><c>   1</c></rc>
    <rc><c>C </c><c>   1</c></rc>
    <rc><c>C </c><c>   1</c></rc>
    <rc><c>C </c><c>   1</c></rc>
    <rc><c>C </c><c>   1</c></rc>
    <rc><c>C </c><c>   1</c></rc>
    <rc><c>C </c><c>   1</c></rc>
    <rc><c>C </c><c>   1</c></rc>
    <rc><c>C </c><c>   1</c></rc>
    <rc><c>C </c><c>   1</c></rc>
    <rc><c>C </c><c>   1</c></rc>
    <rc><c>C </c><c>   1</c></rc>
    <rc><c>C </c><c>   1</c></rc>
    <rc><c>C </c><c>   1</c></rc>
    <rc><c>C </c><c>   1</c></rc>
    <rc><c>C </c><c>   1</c></rc>
    <rc><c>C </c><c>   1</c></rc>
    <rc><c>C </c><c>   1</c></rc>
    <rc><c>C </c><c>   1</c></rc>
    <rc><c>C </c><c>   1</c></rc>
    <rc><c>C </c><c>   1</c></rc>
    <rc><c>C </c><c>   1</c></rc>
    <rc><c>C </c><c>   1</c></rc>
    <rc><c>C </c><c>   1</c></rc>
    <rc><c>C </c><c>   1</c></rc>
    <rc><c>C </c><c>   1</c></rc>
    <rc><c>C </c><c>   1</c></rc>
    <rc><c>C </c><c>   1</c></rc>
    <rc><c>C </c><c>   1</c></rc>
    <rc><c>C </c><c>   1</c></rc>
    <rc><c>C </c><c>   1</c></rc>
    <rc><c>C </c><c>   1</c></rc>
    <rc><c>C </c><c>   1</c></rc>
    <rc><c>C </c><c>   1</c></rc>
    <rc><c>C </c><c>   1</c></rc>
    <rc><c>C </c><c>   1</c></rc>
    <rc><c>C </c><c>   1</c></rc>
    <rc><c>C </c><c>   1</c></rc>
    <rc><c>C </c><c>   1</c></rc>
    <rc><c>C </c><c>   1</c></rc>
    <rc><c>C </c><c>   1</c></rc>
    <rc><c>C </c><c>   1</c></rc>
    <rc><c>C </c><c>   1</c></rc>
    <rc><c>C </c><c>   1</c></rc>
    <rc><c>C </c><c>   1</c></rc>
    <rc><c>C </c><c>   1</c></rc>
    <rc><c>C </c><c>   1</c></rc>
    <rc><c>C </c><c>   1</c></rc>
    <rc><c>C </c><c>   1</c></rc>
    <rc><c>C </c><c>   1</c></rc>
    <rc><c>C </c><c>   1</c></rc>
    <rc><c>C </c><c>   1</c></rc>
    <rc><c>C </c><c>   1</c></rc>
    <rc><c>C </c><c>   1</c></rc>
    <rc><c>C </c><c>   1</c></rc>
    <rc><c>C </c><c>   1</c></rc>
    <rc><c>C </c><c>   1</c></rc>
    <rc><c>C </c><c>   1</c></rc>
    <rc><c>C </c><c>   1</c></rc>
    <rc><c>C </c><c>   1</c></rc>
    <rc><c>C </c><c>   1</c></rc>
    <rc><c>C </c><c>   1</c></rc>
    <rc><c>C </c><c>   1</c></rc>
    <rc><c>C </c><c>   1</c></rc>
    <rc><c>C </c><c>   1</c></rc>
    <rc><c>C </c><c>   1</c></rc>
    <rc><c>H </c><c>   2</c></rc>
    <rc><c>H </c><c>   2</c></rc>
    <rc><c>H </c><c>   2</c></rc>
    <rc><c>H </c><c>   2</c></rc>
    <rc><c>H </c><c>   2</c></rc>
    <rc><c>H </c><c>   2</c></rc>
    <rc><c>H </c><c>   2</c></rc>
    <rc><c>H </c><c>   2</c></rc>
    <rc><c>H </c><c>   2</c></rc>
    <rc><c>H </c><c>   2</c></rc>
    <rc><c>H </c><c>   2</c></rc>
    <rc><c>H </c><c>   2</c></rc>
    <rc><c>H </c><c>   2</c></rc>
    <rc><c>H </c><c>   2</c></rc>
    <rc><c>H </c><c>   2</c></rc>
    <rc><c>H </c><c>   2</c></rc>
    <rc><c>H </c><c>   2</c></rc>
    <rc><c>H </c><c>   2</c></rc>
    <rc><c>H </c><c>   2</c></rc>
    <rc><c>H </c><c>   2</c></rc>
    <rc><c>H </c><c>   2</c></rc>
    <rc><c>H </c><c>   2</c></rc>
    <rc><c>H </c><c>   2</c></rc>
    <rc><c>H </c><c>   2</c></rc>
    <rc><c>H </c><c>   2</c></rc>
    <rc><c>H </c><c>   2</c></rc>
    <rc><c>H </c><c>   2</c></rc>
    <rc><c>H </c><c>   2</c></rc>
    <rc><c>H </c><c>   2</c></rc>
    <rc><c>H </c><c>   2</c></rc>
    <rc><c>H </c><c>   2</c></rc>
    <rc><c>H </c><c>   2</c></rc>
    <rc><c>H </c><c>   2</c></rc>
    <rc><c>H </c><c>   2</c></rc>
    <rc><c>H </c><c>   2</c></rc>
    <rc><c>H </c><c>   2</c></rc>
    <rc><c>H </c><c>   2</c></rc>
    <rc><c>H </c><c>   2</c></rc>
    <rc><c>H </c><c>   2</c></rc>
    <rc><c>H </c><c>   2</c></rc>
    <rc><c>H </c><c>   2</c></rc>
    <rc><c>H </c><c>   2</c></rc>
    <rc><c>O </c><c>   3</c></rc>
    <rc><c>O </c><c>   3</c></rc>
    <rc><c>O </c><c>   3</c></rc>
    <rc><c>O </c><c>   3</c></rc>
    <rc><c>O </c><c>   3</c></rc>
    <rc><c>O </c><c>   3</c></rc>
   </set>
  </array>
  <array name="atomtypes" >
   <dimension dim="1">type</dimension>
   <field type="int">atomspertype</field>
   <field type="string">element</field>
   <field>mass</field>
   <field>valence</field>
   <field type="string">pseudopotential</field>
   <set>
    <rc><c>  72</c><c>C </c><c>     12.01100000</c><c>      4.00000000</c><c>  PAW_PBE C 08Apr2002                   </c></rc>
    <rc><c>  42</c><c>H </c><c>      1.00000000</c><c>      1.00000000</c><c>  PAW_PBE H 15Jun2001                   </c></rc>
    <rc><c>   6</c><c>O </c><c>     16.00000000</c><c>      6.00000000</c><c>  PAW_PBE O 08Apr2002                   </c></rc>
   </set>
  </array>
 </atominfo>
 <structure name="initialpos" >
  <crystal>
   <varray name="basis" >
    <v>      23.48997073       0.00041987       0.00000000 </v>
    <v>     -11.74445184      20.34025200       0.00000000 </v>
    <v>       0.00000000       0.00000000      20.00000000 </v>
   </varray>
   <i name="volume">   9555.93710728 </i>
   <varray name="rec_basis" >
    <v>       0.04257092       0.02458043       0.00000000 </v>
    <v>      -0.00000088       0.04916309       0.00000000 </v>
    <v>       0.00000000       0.00000000       0.05000000 </v>
   </varray>
  </crystal>
  <varray name="positions" >
   <v>       0.53125973       0.37176867       0.49034114 </v>
   <v>       0.49768133       0.40671303       0.49103351 </v>
   <v>       0.49613994       0.26591688       0.42978206 </v>
   <v>       0.50148034       0.29887003       0.49015722 </v>
   <v>       0.74077677       0.51057307       0.42998320 </v>
   <v>       0.70813280       0.50616099       0.49017586 </v>
   <v>       0.53051892       0.47599784       0.49126992 </v>
   <v>       0.59988297       0.50939792       0.49097632 </v>
   <v>       0.63526159       0.47633981       0.49028777 </v>
   <v>       0.60064498       0.40696201       0.48994821 </v>
   <v>       0.49567532       0.26557610       0.55040590 </v>
   <v>       0.74113794       0.51197317       0.55048012 </v>
   <v>       0.87057641       0.47499007       0.49106744 </v>
   <v>       0.93910792       0.50849440       0.49105754 </v>
   <v>       0.49535770       0.20609372       0.42976023 </v>
   <v>       0.50017314       0.17817077       0.48999448 </v>
   <v>       0.79981025       0.50980164       0.43017690 </v>
   <v>       0.82751986       0.50485532       0.49066306 </v>
   <v>       0.49674778       0.06658318       0.49085369 </v>
   <v>       0.52988576       0.13502215       0.49006359 </v>
   <v>       0.59924778       0.16969242       0.48956596 </v>
   <v>       0.83631129       0.40558540       0.49121135 </v>
   <v>       0.49486986       0.20573817       0.55027110 </v>
   <v>       0.80017102       0.51116768       0.55078375 </v>
   <v>       0.63438716       0.13543291       0.49022813 </v>
   <v>       0.59936550       0.06690375       0.49112975 </v>
   <v>       0.42446265       0.92111089       0.49145841 </v>
   <v>       0.38944866       0.85257569       0.49103122 </v>
   <v>       0.80012002       0.26573353       0.43041894 </v>
   <v>       0.74032697       0.20667233       0.43006219 </v>
   <v>       0.70728765       0.17854484       0.49027425 </v>
   <v>       0.82790815       0.29802522       0.49088936 </v>
   <v>       0.22383921       0.72270569       0.43054765 </v>
   <v>       0.28354452       0.78186289       0.43061255 </v>
   <v>       0.31654636       0.80942697       0.49098099 </v>
   <v>       0.19610917       0.68976328       0.49074671 </v>
   <v>       0.53007089       0.03053667       0.49125013 </v>
   <v>       0.49374841       0.95749468       0.49140406 </v>
   <v>       0.97547989       0.47557492       0.49124366 </v>
   <v>       0.93942135       0.40620951       0.49135968 </v>
   <v>       0.87099453       0.37090043       0.49127445 </v>
   <v>       0.04851061       0.51223543       0.49104637 </v>
   <v>       0.15303429       0.61688488       0.49065493 </v>
   <v>       0.08459617       0.58159839       0.49109499 </v>
   <v>       0.74049061       0.20557528       0.55068029 </v>
   <v>       0.80027952       0.26466188       0.55092549 </v>
   <v>       0.28334224       0.78175046       0.55123187 </v>
   <v>       0.22365490       0.72256291       0.55105605 </v>
   <v>       0.52651101       0.58148743       0.49131886 </v>
   <v>       0.49291660       0.61641583       0.49082690 </v>
   <v>       0.08484428       0.47927543       0.49070786 </v>
   <v>       0.15337367       0.51275387       0.49034713 </v>
   <v>       0.52810210       0.78182413       0.43024019 </v>
   <v>       0.52746036       0.72207526       0.43022997 </v>
   <v>       0.52261808       0.68931268       0.49061390 </v>
   <v>       0.52374872       0.80993523       0.49053929 </v>
   <v>       0.28356998       0.47733284       0.43017261 </v>
   <v>       0.22445997       0.47796451       0.42995689 </v>
   <v>       0.19645914       0.48291898       0.49023798 </v>
   <v>       0.31604068       0.48196098       0.49054479 </v>
   <v>       0.49368259       0.51219419       0.49144363 </v>
   <v>       0.42352154       0.58118313       0.49044266 </v>
   <v>       0.38891480       0.51181170       0.49081846 </v>
   <v>       0.42431391       0.47876939       0.49129310 </v>
   <v>       0.42459234       0.81832515       0.49058193 </v>
   <v>       0.49396182       0.85301858       0.49075746 </v>
   <v>       0.52707195       0.92145690       0.49113085 </v>
   <v>       0.18769136       0.58216932       0.49027049 </v>
   <v>       0.52882302       0.72278101       0.55083958 </v>
   <v>       0.52956843       0.78259483       0.55074748 </v>
   <v>       0.22367205       0.47684685       0.55057130 </v>
   <v>       0.28282551       0.47627669       0.55067235 </v>
   <v>       0.44417524       0.37807043       0.49133445 </v>
   <v>       0.49914165       0.29053098       0.38253339 </v>
   <v>       0.71637504       0.50759537       0.38260774 </v>
   <v>       0.62809744       0.56292020       0.49121740 </v>
   <v>       0.49834511       0.28994036       0.59772876 </v>
   <v>       0.71700419       0.51011765       0.59772138 </v>
   <v>       0.60847785       0.32832560       0.48917831 </v>
   <v>       0.67793720       0.25618550       0.48904476 </v>
   <v>       0.74982343       0.39775024       0.49089243 </v>
   <v>       0.96404345       0.56201140       0.49082175 </v>
   <v>       0.49802802       0.18440455       0.38243690 </v>
   <v>       0.82134295       0.50649205       0.38299757 </v>
   <v>       0.44322258       0.04134954       0.49117057 </v>
   <v>       0.49709097       0.18374013       0.59756328 </v>
   <v>       0.82197715       0.50895069       0.59821536 </v>
   <v>       0.39588295       0.94604129       0.49175762 </v>
   <v>       0.71581479       0.18546731       0.38266480 </v>
   <v>       0.82193967       0.29045821       0.38327500 </v>
   <v>       0.30804169       0.80361834       0.38335959 </v>
   <v>       0.20209519       0.69847622       0.38319034 </v>
   <v>       0.05939509       0.60991402       0.49154121 </v>
   <v>       0.71612531       0.18351003       0.59790203 </v>
   <v>       0.82220218       0.28851540       0.59837332 </v>
   <v>       0.30762035       0.80343802       0.59859385 </v>
   <v>       0.20177760       0.69818671       0.59832406 </v>
   <v>       0.41565961       0.65981296       0.48934337 </v>
   <v>       0.58002370       0.61011221       0.49152803 </v>
   <v>       0.34594273       0.73180955       0.49019412 </v>
   <v>       0.62791667       0.04193673       0.49176678 </v>
   <v>       0.27418512       0.58993035       0.48987692 </v>
   <v>       0.05989089       0.42575430       0.49071892 </v>
   <v>       0.52416126       0.69735519       0.38297545 </v>
   <v>       0.52497459       0.80331933       0.38296757 </v>
   <v>       0.20311129       0.48115703       0.38260287 </v>
   <v>       0.30821668       0.48028899       0.38296895 </v>
   <v>       0.39609982       0.42524199       0.49144264 </v>
   <v>       0.58059346       0.94671985       0.49107060 </v>
   <v>       0.96463719       0.37790734       0.49145310 </v>
   <v>       0.52654625       0.69862346       0.59819584 </v>
   <v>       0.52771103       0.80476099       0.59806942 </v>
   <v>       0.20164748       0.47909194       0.59784408 </v>
   <v>       0.30683873       0.47838302       0.59806613 </v>
   <v>       0.63723769       0.37622245       0.48944832 </v>
   <v>       0.63004862       0.23703202       0.48877466 </v>
   <v>       0.76896901       0.36900759       0.49123265 </v>
   <v>       0.38692925       0.61192150       0.48983924 </v>
   <v>       0.39382657       0.75099474       0.49005254 </v>
   <v>       0.25502748       0.61866648       0.49001173 </v>
  </varray>
 </structure>
 <calculation>
  <scstep>
   <time name="dav">  440.44  445.11</time>
   <time name="total">  440.62  445.30</time>
   <energy>
    <i name="alphaZ">     65.87409018 </i>
    <i name="ewald">  47565.37590099 </i>
    <i name="hartreedc"> -58975.58259396 </i>
    <i name="XCdc">   1272.38757458 </i>
    <i name="pawpsdc">  32945.07625694 </i>
    <i name="pawaedc"> -33007.63085487 </i>
    <i name="eentropy">     -0.00000000 </i>
    <i name="bandstr">  -4418.42187384 </i>
    <i name="atom">  13713.25502285 </i>
    <i name="e_fr_energy">   -839.66647714 </i>
    <i name="e_wo_entrp">   -839.66647714 </i>
    <i name="e_0_energy">   -839.66647714 </i>
   </energy>
  </scstep>
  <scstep>
   <time name="dav">  486.06  491.24</time>
   <time name="total">  486.06  491.25</time>
   <energy>
    <i name="e_fr_energy">   -840.41673704 </i>
    <i name="e_wo_entrp">   -840.41673704 </i>
    <i name="e_0_energy">   -840.41673704 </i>
   </energy>
  </scstep>
  <scstep>
   <time name="dav">  512.54  518.04</time>
   <time name="total">  512.54  518.04</time>
   <energy>
    <i name="e_fr_energy">   -840.43556885 </i>
    <i name="e_wo_entrp">   -840.43556885 </i>
    <i name="e_0_energy">   -840.43556885 </i>
   </energy>
  </scstep>
  <scstep>
   <time name="dav">  487.46  492.59</time>
   <time name="total">  487.46  492.59</time>
   <energy>
    <i name="e_fr_energy">   -840.43608541 </i>
    <i name="e_wo_entrp">   -840.43608541 </i>
    <i name="e_0_energy">   -840.43608541 </i>
   </energy>
  </scstep>
  <scstep>
   <time name="dav">  483.73  488.74</time>
   <time name="total">  483.73  488.75</time>
   <energy>
    <i name="e_fr_energy">   -840.43611487 </i>
    <i name="e_wo_entrp">   -840.43611487 </i>
    <i name="e_0_energy">   -840.43611487 </i>
   </energy>
  </scstep>
  <scstep>
   <time name="dav">  383.69  387.94</time>
   <time name="total">  383.69  387.95</time>
   <energy>
    <i name="alphaZ">     65.87409018 </i>
    <i name="ewald">  47565.37590099 </i>
    <i name="hartreedc"> -58975.58259396 </i>
    <i name="XCdc">   1272.38757458 </i>
    <i name="pawpsdc">  32945.07625694 </i>
    <i name="pawaedc"> -33007.63085487 </i>
    <i name="eentropy">     -0.00000000 </i>
    <i name="bandstr">  -4419.19151283 </i>
    <i name="atom">  13713.25502285 </i>
    <i name="e_fr_energy">   -840.43611614 </i>
    <i name="e_wo_entrp">   -840.43611614 </i>
    <i name="e_0_energy">   -840.43611614 </i>
   </energy>
  </scstep>
  <structure>
   <crystal>
    <varray name="basis" >
     <v>      23.48997073       0.00041987       0.00000000 </v>
     <v>     -11.74445184      20.34025200       0.00000000 </v>
     <v>       0.00000000       0.00000000      20.00000000 </v>
    </varray>
    <i name="volume">   9555.93710728 </i>
    <varray name="rec_basis" >
     <v>       0.04257092       0.02458043       0.00000000 </v>
     <v>      -0.00000088       0.04916309       0.00000000 </v>
     <v>       0.00000000       0.00000000       0.05000000 </v>
    </varray>
   </crystal>
   <varray name="positions" >
    <v>       0.53125973       0.37176867       0.49034114 </v>
    <v>       0.49768133       0.40671303       0.49103351 </v>
    <v>       0.49613994       0.26591688       0.42978206 </v>
    <v>       0.50148034       0.29887003       0.49015722 </v>
    <v>       0.74077677       0.51057307       0.42998320 </v>
    <v>       0.70813280       0.50616099       0.49017586 </v>
    <v>       0.53051892       0.47599784       0.49126992 </v>
    <v>       0.59988297       0.50939792       0.49097632 </v>
    <v>       0.63526159       0.47633981       0.49028777 </v>
    <v>       0.60064498       0.40696201       0.48994821 </v>
    <v>       0.49567532       0.26557610       0.55040590 </v>
    <v>       0.74113794       0.51197317       0.55048012 </v>
    <v>       0.87057641       0.47499007       0.49106744 </v>
    <v>       0.93910792       0.50849440       0.49105754 </v>
    <v>       0.49535770       0.20609372       0.42976023 </v>
    <v>       0.50017314       0.17817077       0.48999448 </v>
    <v>       0.79981025       0.50980164       0.43017690 </v>
    <v>       0.82751986       0.50485532       0.49066306 </v>
    <v>       0.49674778       0.06658318       0.49085369 </v>
    <v>       0.52988576       0.13502215       0.49006359 </v>
    <v>       0.59924778       0.16969242       0.48956596 </v>
    <v>       0.83631129       0.40558540       0.49121135 </v>
    <v>       0.49486986       0.20573817       0.55027110 </v>
    <v>       0.80017102       0.51116768       0.55078375 </v>
    <v>       0.63438716       0.13543291       0.49022813 </v>
    <v>       0.59936550       0.06690375       0.49112975 </v>
    <v>       0.42446265       0.92111089       0.49145841 </v>
    <v>       0.38944866       0.85257569       0.49103122 </v>
    <v>       0.80012002       0.26573353       0.43041894 </v>
    <v>       0.74032697       0.20667233       0.43006219 </v>
    <v>       0.70728765       0.17854484       0.49027425 </v>
    <v>       0.82790815       0.29802522       0.49088936 </v>
    <v>       0.22383921       0.72270569       0.43054765 </v>
    <v>       0.28354452       0.78186289       0.43061255 </v>
    <v>       0.31654636       0.80942697       0.49098099 </v>
    <v>       0.19610917       0.68976328       0.49074671 </v>
    <v>       0.53007089       0.03053667       0.49125013 </v>
    <v>       0.49374841       0.95749468       0.49140406 </v>
    <v>       0.97547989       0.47557492       0.49124366 </v>
    <v>       0.93942135       0.40620951       0.49135968 </v>
    <v>       0.87099453       0.37090043       0.49127445 </v>
    <v>       0.04851061       0.51223543       0.49104637 </v>
    <v>       0.15303429       0.61688488       0.49065493 </v>
    <v>       0.08459617       0.58159839       0.49109499 </v>
    <v>       0.74049061       0.20557528       0.55068029 </v>
    <v>       0.80027952       0.26466188       0.55092549 </v>
    <v>       0.28334224       0.78175046       0.55123187 </v>
    <v>       0.22365490       0.72256291       0.55105605 </v>
    <v>       0.52651101       0.58148743       0.49131886 </v>
    <v>       0.49291660       0.61641583       0.49082690 </v>
    <v>       0.08484428       0.47927543       0.49070786 </v>
    <v>       0.15337367       0.51275387       0.49034713 </v>
    <v>       0.52810210       0.78182413       0.43024019 </v>
    <v>       0.52746036       0.72207526       0.43022997 </v>
    <v>       0.52261808       0.68931268       0.49061390 </v>
    <v>       0.52374872       0.80993523       0.49053929 </v>
    <v>       0.28356998       0.47733284       0.43017261 </v>
    <v>       0.22445997       0.47796451       0.42995689 </v>
    <v>       0.19645914       0.48291898       0.49023798 </v>
    <v>       0.31604068       0.48196098       0.49054479 </v>
    <v>       0.49368259       0.51219419       0.49144363 </v>
    <v>       0.42352154       0.58118313       0.49044266 </v>
    <v>       0.38891480       0.51181170       0.49081846 </v>
    <v>       0.42431391       0.47876939       0.49129310 </v>
    <v>       0.42459234       0.81832515       0.49058193 </v>
    <v>       0.49396182       0.85301858       0.49075746 </v>
    <v>       0.52707195       0.92145690       0.49113085 </v>
    <v>       0.18769136       0.58216932       0.49027049 </v>
    <v>       0.52882302       0.72278101       0.55083958 </v>
    <v>       0.52956843       0.78259483       0.55074748 </v>
    <v>       0.22367205       0.47684685       0.55057130 </v>
    <v>       0.28282551       0.47627669       0.55067235 </v>
    <v>       0.44417524       0.37807043       0.49133445 </v>
    <v>       0.49914165       0.29053098       0.38253339 </v>
    <v>       0.71637504       0.50759537       0.38260774 </v>
    <v>       0.62809744       0.56292020       0.49121740 </v>
    <v>       0.49834511       0.28994036       0.59772876 </v>
    <v>       0.71700419       0.51011765       0.59772138 </v>
    <v>       0.60847785       0.32832560       0.48917831 </v>
    <v>       0.67793720       0.25618550       0.48904476 </v>
    <v>       0.74982343       0.39775024       0.49089243 </v>
    <v>       0.96404345       0.56201140       0.49082175 </v>
    <v>       0.49802802       0.18440455       0.38243690 </v>
    <v>       0.82134295       0.50649205       0.38299757 </v>
    <v>       0.44322258       0.04134954       0.49117057 </v>
    <v>       0.49709097       0.18374013       0.59756328 </v>
    <v>       0.82197715       0.50895069       0.59821536 </v>
    <v>       0.39588295       0.94604129       0.49175762 </v>
    <v>       0.71581479       0.18546731       0.38266480 </v>
    <v>       0.82193967       0.29045821       0.38327500 </v>
    <v>       0.30804169       0.80361834       0.38335959 </v>
    <v>       0.20209519       0.69847622       0.38319034 </v>
    <v>       0.05939509       0.60991402       0.49154121 </v>
    <v>       0.71612531       0.18351003       0.59790203 </v>
    <v>       0.82220218       0.28851540       0.59837332 </v>
    <v>       0.30762035       0.80343802       0.59859385 </v>
    <v>       0.20177760       0.69818671       0.59832406 </v>
    <v>       0.41565961       0.65981296       0.48934337 </v>
    <v>       0.58002370       0.61011221       0.49152803 </v>
    <v>       0.34594273       0.73180955       0.49019412 </v>
    <v>       0.62791667       0.04193673       0.49176678 </v>
    <v>       0.27418512       0.58993035       0.48987692 </v>
    <v>       0.05989089       0.42575430       0.49071892 </v>
    <v>       0.52416126       0.69735519       0.38297545 </v>
    <v>       0.52497459       0.80331933       0.38296757 </v>
    <v>       0.20311129       0.48115703       0.38260287 </v>
    <v>       0.30821668       0.48028899       0.38296895 </v>
    <v>       0.39609982       0.42524199       0.49144264 </v>
    <v>       0.58059346       0.94671985       0.49107060 </v>
    <v>       0.96463719       0.37790734       0.49145310 </v>
    <v>       0.52654625       0.69862346       0.59819584 </v>
    <v>       0.52771103       0.80476099       0.59806942 </v>
    <v>       0.20164748       0.47909194       0.59784408 </v>
    <v>       0.30683873       0.47838302       0.59806613 </v>
    <v>       0.63723769       0.37622245       0.48944832 </v>
    <v>       0.63004862       0.23703202       0.48877466 </v>
    <v>       0.76896901       0.36900759       0.49123265 </v>
    <v>       0.38692925       0.61192150       0.48983924 </v>
    <v>       0.39382657       0.75099474       0.49005254 </v>
    <v>       0.25502748       0.61866648       0.49001173 </v>
   </varray>
  </structure>
  <varray name="forces" >
   <v>       0.00144983       0.00230887       0.00193225 </v>
   <v>       0.00528286      -0.00282053      -0.00201742 </v>
   <v>       0.00159984      -0.00086662       0.00173843 </v>
   <v>       0.00012663      -0.00319593       0.00127249 </v>
   <v>       0.00206125       0.00300946      -0.00001197 </v>
   <v>       0.00136597      -0.00150289       0.00109202 </v>
   <v>      -0.00670607      -0.00298452      -0.00135334 </v>
   <v>      -0.00397056      -0.00295568      -0.00130820 </v>
   <v>       0.00102299      -0.00093914       0.00377813 </v>
   <v>      -0.00236597       0.00806244       0.00028324 </v>
   <v>       0.00060232      -0.00162785      -0.00078304 </v>
   <v>       0.00052162      -0.00099361       0.00310380 </v>
   <v>      -0.00064940      -0.00219222      -0.00134716 </v>
   <v>      -0.00158359      -0.00055815       0.00287334 </v>
   <v>      -0.00162449       0.00056195      -0.00227589 </v>
   <v>      -0.00225787       0.00354573       0.00029564 </v>
   <v>       0.00002142      -0.00039721      -0.00086307 </v>
   <v>      -0.00225889       0.00087690      -0.00185625 </v>
   <v>       0.00303441      -0.00199300       0.00152957 </v>
   <v>      -0.00137543       0.00120314      -0.00095144 </v>
   <v>       0.00599130       0.00117781       0.00489866 </v>
   <v>      -0.00150340      -0.00226693      -0.00005971 </v>
   <v>      -0.00341922      -0.00127280       0.00256921 </v>
   <v>       0.00106544      -0.00181886       0.00092050 </v>
   <v>      -0.00802938      -0.00234691       0.00318123 </v>
   <v>      -0.00091156      -0.00011947       0.00217188 </v>
   <v>      -0.00058697      -0.00421154      -0.00012855 </v>
   <v>       0.00252518      -0.00004318       0.00124897 </v>
   <v>       0.00309225      -0.00133457       0.00338808 </v>
   <v>       0.00117874       0.00272285       0.00047369 </v>
   <v>       0.00163821       0.00239464       0.00203159 </v>
   <v>      -0.00498845      -0.00210612      -0.00112074 </v>
   <v>      -0.00230047      -0.00053474      -0.00060330 </v>
   <v>      -0.00145699      -0.00052194       0.00191237 </v>
   <v>      -0.00236975      -0.00012289      -0.00017458 </v>
   <v>      -0.00212018      -0.00149877       0.00146568 </v>
   <v>      -0.00074263      -0.00199232      -0.00629124 </v>
   <v>      -0.00241908       0.00259622       0.00031998 </v>
   <v>       0.00058899      -0.00167932      -0.00247146 </v>
   <v>       0.00186904      -0.00008803       0.00138759 </v>
   <v>      -0.00284580      -0.00238876      -0.00151854 </v>
   <v>       0.00032281      -0.00269955       0.00090662 </v>
   <v>       0.00766938       0.00188455       0.00092476 </v>
   <v>       0.00386932       0.00052992       0.00115856 </v>
   <v>       0.00024287       0.00136124      -0.00103636 </v>
   <v>       0.00327184       0.00107307      -0.00217713 </v>
   <v>      -0.00097366      -0.00055277      -0.00165922 </v>
   <v>      -0.00130700       0.00036388       0.00144384 </v>
   <v>      -0.00009387       0.00069791       0.00315558 </v>
   <v>      -0.00269413      -0.00426257      -0.00248903 </v>
   <v>       0.00541775       0.00091458       0.00037065 </v>
   <v>       0.00111984       0.00493322       0.00093076 </v>
   <v>       0.00433402       0.00467415       0.00072894 </v>
   <v>      -0.00387700       0.00234261      -0.00431223 </v>
   <v>       0.00257498       0.00410505      -0.00114551 </v>
   <v>      -0.00504955      -0.00731890      -0.00120637 </v>
   <v>      -0.00210117      -0.00248845       0.00047931 </v>
   <v>       0.00023530       0.00084773      -0.00001052 </v>
   <v>       0.00421175       0.00088947      -0.00037280 </v>
   <v>      -0.00550285       0.00279691      -0.00055554 </v>
   <v>       0.00411304       0.00266966      -0.00709902 </v>
   <v>       0.00351392       0.00158808       0.00295574 </v>
   <v>       0.00183939       0.00066030      -0.00423420 </v>
   <v>      -0.00111780       0.00500410       0.00273059 </v>
   <v>       0.00399100       0.00122015       0.00285142 </v>
   <v>      -0.00256869       0.00001850       0.00163792 </v>
   <v>       0.00108589       0.00428629      -0.00106068 </v>
   <v>       0.00116297      -0.00609628       0.00084478 </v>
   <v>      -0.00136231       0.00313371       0.00227858 </v>
   <v>      -0.00077720       0.00424949      -0.00164741 </v>
   <v>      -0.00163934       0.00100524      -0.00018630 </v>
   <v>      -0.00226386      -0.00275434      -0.00136244 </v>
   <v>      -0.00095430       0.00159800      -0.00109037 </v>
   <v>      -0.00078843      -0.00232106      -0.00274329 </v>
   <v>      -0.00240031      -0.00099278       0.00147316 </v>
   <v>       0.00056480       0.00679737      -0.00167069 </v>
   <v>      -0.00084023      -0.00329060       0.00343492 </v>
   <v>      -0.00033499      -0.00185299       0.00118250 </v>
   <v>       0.00448887       0.00161572       0.00091920 </v>
   <v>      -0.00065495      -0.00045616      -0.00290189 </v>
   <v>      -0.00223553      -0.00070366       0.00144137 </v>
   <v>       0.00094773       0.00285146      -0.00169682 </v>
   <v>      -0.00052434      -0.00068020       0.00188198 </v>
   <v>      -0.00091637       0.00084382      -0.00106103 </v>
   <v>       0.00191181      -0.00024882      -0.00392812 </v>
   <v>       0.00248671      -0.00102531      -0.00181427 </v>
   <v>      -0.00141801       0.00008254      -0.00146196 </v>
   <v>      -0.00103892       0.00127422      -0.00049258 </v>
   <v>       0.00269135      -0.00486781      -0.00030165 </v>
   <v>      -0.00299695       0.00033230       0.00016799 </v>
   <v>      -0.00110945       0.00151964      -0.00271079 </v>
   <v>       0.00113872      -0.00303262       0.00195155 </v>
   <v>      -0.00422133       0.00087916      -0.00369799 </v>
   <v>      -0.00029437      -0.00213293       0.00076337 </v>
   <v>      -0.00294560       0.00160797       0.00060596 </v>
   <v>       0.00346148       0.00002787       0.00213117 </v>
   <v>       0.00026833      -0.00001125      -0.00142984 </v>
   <v>      -0.00137768       0.00148829       0.00580079 </v>
   <v>      -0.00348870       0.00051985      -0.00052723 </v>
   <v>      -0.00509153      -0.00177168      -0.00160686 </v>
   <v>      -0.00282864       0.00469432      -0.00521941 </v>
   <v>      -0.00274787       0.00085025      -0.00065852 </v>
   <v>      -0.00117007       0.00034191      -0.00170338 </v>
   <v>       0.00173972      -0.00067888      -0.00176497 </v>
   <v>       0.00334279       0.00063960       0.00075816 </v>
   <v>      -0.00054993      -0.00077629       0.00202698 </v>
   <v>       0.00009656      -0.00236177      -0.00283297 </v>
   <v>       0.00077706      -0.00037019      -0.00012517 </v>
   <v>       0.00182678      -0.00168701       0.00045015 </v>
   <v>       0.00466771      -0.00094168      -0.00147856 </v>
   <v>       0.00262797      -0.00019221      -0.00087008 </v>
   <v>      -0.00126537      -0.00357509      -0.00202104 </v>
   <v>       0.00042152       0.00333544       0.00074352 </v>
   <v>       0.00142887      -0.00025236      -0.00068401 </v>
   <v>       0.00100820      -0.00608174      -0.00381857 </v>
   <v>       0.00459623       0.00231282       0.00372069 </v>
   <v>       0.00201858       0.00545623      -0.00022615 </v>
   <v>       0.00389923      -0.00074571       0.00461334 </v>
   <v>       0.00112174      -0.00127105       0.00481390 </v>
   <v>      -0.00153870      -0.00290941       0.00008173 </v>
  </varray>
  <varray name="stress" >
   <v>      -0.01832996       0.00062668      -0.00120209 </v>
   <v>       0.00062668      -0.00510933       0.00091190 </v>
   <v>      -0.00120208       0.00091190      -0.22448150 </v>
  </varray>
  <energy>
   <i name="e_fr_energy">   -843.51515011 </i>
   <i name="e_wo_entrp">   -843.51515011 </i>
   <i name="e_0_energy">     -0.00000000 </i>
  </energy>
  <time name="totalsc"> 3285.50 3322.32</time>
  <eigenvalues>
   <array>
    <dimension dim="1">band</dimension>
    <dimension dim="2">kpoint</dimension>
    <dimension dim="3">spin</dimension>
    <field>eigene</field>
    <field>occ</field>
    <set>
     <set comment="spin 1">
      <set comment="kpoint 1">
       <r>  -25.9795    1.0000 </r>
       <r>  -25.9792    1.0000 </r>
       <r>  -25.9040    1.0000 </r>
       <r>  -25.9035    1.0000 </r>
       <r>  -25.9013    1.0000 </r>
       <r>  -25.9007    1.0000 </r>
       <r>  -21.3177    1.0000 </r>
       <r>  -21.2067    1.0000 </r>
       <r>  -21.2060    1.0000 </r>
       <r>  -21.2031    1.0000 </r>
       <r>  -21.1241    1.0000 </r>
       <r>  -21.1233    1.0000 </r>
       <r>  -20.8877    1.0000 </r>
       <r>  -20.8875    1.0000 </r>
       <r>  -20.5912    1.0000 </r>
       <r>  -20.5554    1.0000 </r>
       <r>  -20.5550    1.0000 </r>
       <r>  -20.1404    1.0000 </r>
       <r>  -19.4822    1.0000 </r>
       <r>  -19.4554    1.0000 </r>
       <r>  -19.2141    1.0000 </r>
       <r>  -19.2138    1.0000 </r>
       <r>  -18.7603    1.0000 </r>
       <r>  -18.7601    1.0000 </r>
       <r>  -18.5538    1.0000 </r>
       <r>  -18.2672    1.0000 </r>
       <r>  -18.2671    1.0000 </r>
       <r>  -17.9926    1.0000 </r>
       <r>  -17.9922    1.0000 </r>
       <r>  -17.9904    1.0000 </r>
       <r>  -17.9899    1.0000 </r>
       <r>  -17.9895    1.0000 </r>
       <r>  -17.9893    1.0000 </r>
       <r>  -17.7869    1.0000 </r>
       <r>  -17.7869    1.0000 </r>
       <r>  -17.1950    1.0000 </r>
       <r>  -17.1948    1.0000 </r>
       <r>  -17.1807    1.0000 </r>
       <r>  -17.1179    1.0000 </r>
       <r>  -16.7842    1.0000 </r>
       <r>  -16.7839    1.0000 </r>
       <r>  -16.7697    1.0000 </r>
       <r>  -15.5956    1.0000 </r>
       <r>  -15.5947    1.0000 </r>
       <r>  -15.2194    1.0000 </r>
       <r>  -15.2102    1.0000 </r>
       <r>  -15.2095    1.0000 </r>
       <r>  -14.9765    1.0000 </r>
       <r>  -14.7876    1.0000 </r>
       <r>  -14.7865    1.0000 </r>
       <r>  -14.5578    1.0000 </r>
       <r>  -14.5140    1.0000 </r>
       <r>  -14.4900    1.0000 </r>
       <r>  -14.4900    1.0000 </r>
       <r>  -14.4892    1.0000 </r>
       <r>  -14.4889    1.0000 </r>
       <r>  -14.4691    1.0000 </r>
       <r>  -14.4685    1.0000 </r>
       <r>  -14.0105    1.0000 </r>
       <r>  -13.8889    1.0000 </r>
       <r>  -13.8880    1.0000 </r>
       <r>  -13.5030    1.0000 </r>
       <r>  -13.4832    1.0000 </r>
       <r>  -13.4831    1.0000 </r>
       <r>  -13.4233    1.0000 </r>
       <r>  -13.4232    1.0000 </r>
       <r>  -12.9526    1.0000 </r>
       <r>  -12.8816    1.0000 </r>
       <r>  -12.8813    1.0000 </r>
       <r>  -12.8807    1.0000 </r>
       <r>  -12.8242    1.0000 </r>
       <r>  -12.8239    1.0000 </r>
       <r>  -12.4987    1.0000 </r>
       <r>  -12.1654    1.0000 </r>
       <r>  -12.1644    1.0000 </r>
       <r>  -11.8342    1.0000 </r>
       <r>  -11.6991    1.0000 </r>
       <r>  -11.6984    1.0000 </r>
       <r>  -11.5014    1.0000 </r>
       <r>  -11.4636    1.0000 </r>
       <r>  -11.4630    1.0000 </r>
       <r>  -11.3144    1.0000 </r>
       <r>  -11.3135    1.0000 </r>
       <r>  -11.0552    1.0000 </r>
       <r>  -10.9583    1.0000 </r>
       <r>  -10.9441    1.0000 </r>
       <r>  -10.8055    1.0000 </r>
       <r>  -10.8049    1.0000 </r>
       <r>  -10.8008    1.0000 </r>
       <r>  -10.8002    1.0000 </r>
       <r>  -10.6793    1.0000 </r>
       <r>  -10.6789    1.0000 </r>
       <r>  -10.6021    1.0000 </r>
       <r>  -10.6019    1.0000 </r>
       <r>  -10.5072    1.0000 </r>
       <r>  -10.4795    1.0000 </r>
       <r>  -10.3749    1.0000 </r>
       <r>  -10.3205    1.0000 </r>
       <r>  -10.3203    1.0000 </r>
       <r>   -9.8854    1.0000 </r>
       <r>   -9.8850    1.0000 </r>
       <r>   -9.8251    1.0000 </r>
       <r>   -9.8250    1.0000 </r>
       <r>   -9.7124    1.0000 </r>
       <r>   -9.6881    1.0000 </r>
       <r>   -9.6854    1.0000 </r>
       <r>   -9.6805    1.0000 </r>
       <r>   -9.6796    1.0000 </r>
       <r>   -9.6785    1.0000 </r>
       <r>   -9.6777    1.0000 </r>
       <r>   -9.6208    1.0000 </r>
       <r>   -9.6196    1.0000 </r>
       <r>   -9.5341    1.0000 </r>
       <r>   -9.3940    1.0000 </r>
       <r>   -9.3932    1.0000 </r>
       <r>   -9.3561    1.0000 </r>
       <r>   -9.2568    1.0000 </r>
       <r>   -9.2559    1.0000 </r>
       <r>   -9.1851    1.0000 </r>
       <r>   -9.0930    1.0000 </r>
       <r>   -9.0923    1.0000 </r>
       <r>   -9.0797    1.0000 </r>
       <r>   -9.0277    1.0000 </r>
       <r>   -9.0257    1.0000 </r>
       <r>   -8.9778    1.0000 </r>
       <r>   -8.8805    1.0000 </r>
       <r>   -8.8785    1.0000 </r>
       <r>   -8.7047    1.0000 </r>
       <r>   -8.6158    1.0000 </r>
       <r>   -8.6145    1.0000 </r>
       <r>   -8.4974    1.0000 </r>
       <r>   -8.4649    1.0000 </r>
       <r>   -8.4638    1.0000 </r>
       <r>   -8.3933    1.0000 </r>
       <r>   -8.3924    1.0000 </r>
       <r>   -8.2884    1.0000 </r>
       <r>   -8.2341    1.0000 </r>
       <r>   -8.2332    1.0000 </r>
       <r>   -8.1948    1.0000 </r>
       <r>   -8.1932    1.0000 </r>
       <r>   -7.8608    1.0000 </r>
       <r>   -7.8585    1.0000 </r>
       <r>   -7.8028    1.0000 </r>
       <r>   -7.8022    1.0000 </r>
       <r>   -7.8018    1.0000 </r>
       <r>   -7.8009    1.0000 </r>
       <r>   -7.7837    1.0000 </r>
       <r>   -7.7678    1.0000 </r>
       <r>   -7.7672    1.0000 </r>
       <r>   -7.6103    1.0000 </r>
       <r>   -7.3221    1.0000 </r>
       <r>   -7.2665    1.0000 </r>
       <r>   -7.2660    1.0000 </r>
       <r>   -7.2400    1.0000 </r>
       <r>   -7.1565    1.0000 </r>
       <r>   -7.1561    1.0000 </r>
       <r>   -7.1163    1.0000 </r>
       <r>   -6.8676    1.0000 </r>
       <r>   -6.8668    1.0000 </r>
       <r>   -5.9485    1.0000 </r>
       <r>   -5.9477    1.0000 </r>
       <r>   -5.9420    1.0000 </r>
       <r>   -5.9413    1.0000 </r>
       <r>   -5.8618    1.0000 </r>
       <r>   -5.8580    1.0000 </r>
       <r>   -5.7751    1.0000 </r>
       <r>   -5.6935    1.0000 </r>
       <r>   -5.6906    1.0000 </r>
       <r>   -5.6765    1.0000 </r>
       <r>   -5.6727    1.0000 </r>
       <r>   -5.6194    1.0000 </r>
       <r>   -5.6050    1.0000 </r>
       <r>   -5.6045    1.0000 </r>
       <r>   -5.5370    1.0000 </r>
       <r>   -5.5360    1.0000 </r>
       <r>   -5.4876    1.0000 </r>
       <r>   -5.4508    1.0000 </r>
       <r>   -5.4447    1.0000 </r>
       <r>   -5.4427    1.0000 </r>
       <r>   -5.4149    1.0000 </r>
       <r>   -4.2599    1.0000 </r>
       <r>   -4.2300    1.0000 </r>
       <r>   -4.2295    1.0000 </r>
       <r>   -1.4294    0.0000 </r>
       <r>   -1.2374    0.0000 </r>
       <r>   -1.2325    0.0000 </r>
       <r>   -1.1834    0.0000 </r>
       <r>   -1.1734    0.0000 </r>
       <r>   -1.1731    0.0000 </r>
       <r>   -1.1114    0.0000 </r>
       <r>   -1.1109    0.0000 </r>
       <r>   -1.1010    0.0000 </r>
       <r>   -0.9051    0.0000 </r>
       <r>   -0.9037    0.0000 </r>
       <r>   -0.8890    0.0000 </r>
       <r>   -0.8882    0.0000 </r>
       <r>   -0.8270    0.0000 </r>
       <r>   -0.8263    0.0000 </r>
       <r>   -0.5198    0.0000 </r>
       <r>   -0.5187    0.0000 </r>
       <r>   -0.2601    0.0000 </r>
       <r>   -0.1129    0.0000 </r>
       <r>   -0.1110    0.0000 </r>
       <r>   -0.1100    0.0000 </r>
       <r>    0.0693    0.0000 </r>
       <r>    0.0926    0.0000 </r>
       <r>    0.2332    0.0000 </r>
       <r>    0.2335    0.0000 </r>
       <r>    0.3194    0.0000 </r>
       <r>    0.3553    0.0000 </r>
       <r>    0.3570    0.0000 </r>
       <r>    0.4598    0.0000 </r>
       <r>    0.4879    0.0000 </r>
       <r>    0.6013    0.0000 </r>
       <r>    0.6015    0.0000 </r>
       <r>    0.6673    0.0000 </r>
       <r>    0.6901    0.0000 </r>
       <r>    0.6907    0.0000 </r>
       <r>    0.7863    0.0000 </r>
       <r>    0.7984    0.0000 </r>
       <r>    0.8007    0.0000 </r>
       <r>    0.8257    0.0000 </r>
       <r>    0.8263    0.0000 </r>
       <r>    0.8486    0.0000 </r>
       <r>    0.8813    0.0000 </r>
       <r>    0.8817    0.0000 </r>
       <r>    0.9514    0.0000 </r>
       <r>    1.0158    0.0000 </r>
       <r>    1.0165    0.0000 </r>
       <r>    1.0543    0.0000 </r>
       <r>    1.1520    0.0000 </r>
       <r>    1.1664    0.0000 </r>
       <r>    1.1710    0.0000 </r>
       <r>    1.1955    0.0000 </r>
       <r>    1.2423    0.0000 </r>
       <r>    1.2440    0.0000 </r>
       <r>    1.3193    0.0000 </r>
       <r>    1.3888    0.0000 </r>
       <r>    1.3898    0.0000 </r>
       <r>    1.3904    0.0000 </r>
       <r>    1.3976    0.0000 </r>
       <r>    1.4408    0.0000 </r>
       <r>    1.4428    0.0000 </r>
       <r>    1.4774    0.0000 </r>
       <r>    1.4800    0.0000 </r>
       <r>    1.5103    0.0000 </r>
       <r>    1.5380    0.0000 </r>
       <r>    1.5976    0.0000 </r>
       <r>    1.7726    0.0000 </r>
       <r>    1.7830    0.0000 </r>
       <r>    1.7841    0.0000 </r>
       <r>    1.7918    0.0000 </r>
       <r>    1.8021    0.0000 </r>
       <r>    1.8076    0.0000 </r>
       <r>    1.8107    0.0000 </r>
       <r>    1.8112    0.0000 </r>
      </set>
      <set comment="kpoint 2">
       <r>  -25.9795    1.0000 </r>
       <r>  -25.9792    1.0000 </r>
       <r>  -25.9040    1.0000 </r>
       <r>  -25.9035    1.0000 </r>
       <r>  -25.9013    1.0000 </r>
       <r>  -25.9007    1.0000 </r>
       <r>  -21.3177    1.0000 </r>
       <r>  -21.2093    1.0000 </r>
       <r>  -21.2062    1.0000 </r>
       <r>  -21.2002    1.0000 </r>
       <r>  -21.1241    1.0000 </r>
       <r>  -21.1233    1.0000 </r>
       <r>  -20.8876    1.0000 </r>
       <r>  -20.8874    1.0000 </r>
       <r>  -20.5954    1.0000 </r>
       <r>  -20.5553    1.0000 </r>
       <r>  -20.5507    1.0000 </r>
       <r>  -20.1409    1.0000 </r>
       <r>  -19.4822    1.0000 </r>
       <r>  -19.4554    1.0000 </r>
       <r>  -19.2141    1.0000 </r>
       <r>  -19.2132    1.0000 </r>
       <r>  -18.7616    1.0000 </r>
       <r>  -18.7599    1.0000 </r>
       <r>  -18.5527    1.0000 </r>
       <r>  -18.2676    1.0000 </r>
       <r>  -18.2675    1.0000 </r>
       <r>  -17.9926    1.0000 </r>
       <r>  -17.9922    1.0000 </r>
       <r>  -17.9904    1.0000 </r>
       <r>  -17.9899    1.0000 </r>
       <r>  -17.9895    1.0000 </r>
       <r>  -17.9893    1.0000 </r>
       <r>  -17.7864    1.0000 </r>
       <r>  -17.7861    1.0000 </r>
       <r>  -17.2068    1.0000 </r>
       <r>  -17.1961    1.0000 </r>
       <r>  -17.1697    1.0000 </r>
       <r>  -17.1162    1.0000 </r>
       <r>  -16.7856    1.0000 </r>
       <r>  -16.7843    1.0000 </r>
       <r>  -16.7683    1.0000 </r>
       <r>  -15.5956    1.0000 </r>
       <r>  -15.5941    1.0000 </r>
       <r>  -15.2192    1.0000 </r>
       <r>  -15.2102    1.0000 </r>
       <r>  -15.2100    1.0000 </r>
       <r>  -14.9774    1.0000 </r>
       <r>  -14.7879    1.0000 </r>
       <r>  -14.7862    1.0000 </r>
       <r>  -14.5564    1.0000 </r>
       <r>  -14.5145    1.0000 </r>
       <r>  -14.4900    1.0000 </r>
       <r>  -14.4900    1.0000 </r>
       <r>  -14.4892    1.0000 </r>
       <r>  -14.4889    1.0000 </r>
       <r>  -14.4691    1.0000 </r>
       <r>  -14.4685    1.0000 </r>
       <r>  -14.0121    1.0000 </r>
       <r>  -13.8883    1.0000 </r>
       <r>  -13.8867    1.0000 </r>
       <r>  -13.5046    1.0000 </r>
       <r>  -13.4834    1.0000 </r>
       <r>  -13.4820    1.0000 </r>
       <r>  -13.4232    1.0000 </r>
       <r>  -13.4231    1.0000 </r>
       <r>  -12.9525    1.0000 </r>
       <r>  -12.8834    1.0000 </r>
       <r>  -12.8813    1.0000 </r>
       <r>  -12.8788    1.0000 </r>
       <r>  -12.8242    1.0000 </r>
       <r>  -12.8239    1.0000 </r>
       <r>  -12.4983    1.0000 </r>
       <r>  -12.1661    1.0000 </r>
       <r>  -12.1648    1.0000 </r>
       <r>  -11.8337    1.0000 </r>
       <r>  -11.6992    1.0000 </r>
       <r>  -11.6983    1.0000 </r>
       <r>  -11.5014    1.0000 </r>
       <r>  -11.4638    1.0000 </r>
       <r>  -11.4632    1.0000 </r>
       <r>  -11.3136    1.0000 </r>
       <r>  -11.3130    1.0000 </r>
       <r>  -11.0554    1.0000 </r>
       <r>  -10.9583    1.0000 </r>
       <r>  -10.9441    1.0000 </r>
       <r>  -10.8055    1.0000 </r>
       <r>  -10.8049    1.0000 </r>
       <r>  -10.8008    1.0000 </r>
       <r>  -10.8002    1.0000 </r>
       <r>  -10.6802    1.0000 </r>
       <r>  -10.6794    1.0000 </r>
       <r>  -10.6019    1.0000 </r>
       <r>  -10.6016    1.0000 </r>
       <r>  -10.5070    1.0000 </r>
       <r>  -10.4793    1.0000 </r>
       <r>  -10.3749    1.0000 </r>
       <r>  -10.3206    1.0000 </r>
       <r>  -10.3204    1.0000 </r>
       <r>   -9.8860    1.0000 </r>
       <r>   -9.8853    1.0000 </r>
       <r>   -9.8248    1.0000 </r>
       <r>   -9.8245    1.0000 </r>
       <r>   -9.7119    1.0000 </r>
       <r>   -9.6881    1.0000 </r>
       <r>   -9.6854    1.0000 </r>
       <r>   -9.6805    1.0000 </r>
       <r>   -9.6796    1.0000 </r>
       <r>   -9.6785    1.0000 </r>
       <r>   -9.6777    1.0000 </r>
       <r>   -9.6207    1.0000 </r>
       <r>   -9.6195    1.0000 </r>
       <r>   -9.5340    1.0000 </r>
       <r>   -9.3940    1.0000 </r>
       <r>   -9.3931    1.0000 </r>
       <r>   -9.3567    1.0000 </r>
       <r>   -9.2568    1.0000 </r>
       <r>   -9.2564    1.0000 </r>
       <r>   -9.1846    1.0000 </r>
       <r>   -9.0933    1.0000 </r>
[...]
       <r>   -21.0420     0.0000    24.0000 </r>
       <r>   -20.9399     0.0000    24.0000 </r>
       <r>   -20.8378    30.3095    27.0943 </r>
       <r>   -20.7357    13.6498    29.0936 </r>
       <r>   -20.6336     4.4397    29.6866 </r>
       <r>   -20.5316    23.5612    32.2054 </r>
       <r>   -20.4295     3.8440    32.6925 </r>
       <r>   -20.3274     8.5018    33.6680 </r>
       <r>   -20.2253    11.2379    35.0473 </r>
       <r>   -20.1232     7.8245    35.9988 </r>
       <r>   -20.0211     0.0000    36.0000 </r>
       <r>   -19.9190     0.0000    36.0000 </r>
       <r>   -19.8169     0.0000    36.0000 </r>
       <r>   -19.7148     0.0000    36.0000 </r>
       <r>   -19.6127     0.0000    36.0000 </r>
       <r>   -19.5106     0.0001    36.0000 </r>
       <r>   -19.4085    39.1805    40.0000 </r>
       <r>   -19.3065     0.0000    40.0000 </r>
       <r>   -19.2044    21.6209    42.2073 </r>
       <r>   -19.1023     5.5739    43.0691 </r>
       <r>   -19.0002     7.1802    44.1997 </r>
       <r>   -18.8981     7.3364    45.1490 </r>
       <r>   -18.7960     3.5018    45.6242 </r>
       <r>   -18.6939    21.8747    47.9999 </r>
       <r>   -18.5918     0.0000    48.0000 </r>
       <r>   -18.4897     5.8095    48.5931 </r>
       <r>   -18.3876     7.7229    49.5218 </r>
       <r>   -18.2855    22.3737    53.0842 </r>
       <r>   -18.1835     0.0000    54.0000 </r>
       <r>   -18.0814     0.0000    54.0000 </r>
       <r>   -17.9793   110.9099    65.3229 </r>
       <r>   -17.8772     0.0000    66.0000 </r>
       <r>   -17.7751     5.7896    66.5911 </r>
       <r>   -17.6730    15.6886    68.6350 </r>
       <r>   -17.5709    11.3408    70.1245 </r>
       <r>   -17.4688     4.2844    71.0708 </r>
       <r>   -17.3667     2.4812    71.3866 </r>
       <r>   -17.2646    15.3016    72.9955 </r>
       <r>   -17.1625     8.0834    74.1252 </r>
       <r>   -17.0604     9.2875    75.1815 </r>
       <r>   -16.9584    23.0422    77.8524 </r>
       <r>   -16.8563     8.5651    78.8744 </r>
       <r>   -16.7542    27.6289    82.3874 </r>
       <r>   -16.6521     0.0000    84.0000 </r>
       <r>   -16.5500     0.0000    84.0000 </r>
       <r>   -16.4479     0.0000    84.0000 </r>
       <r>   -16.3458     0.0000    84.0000 </r>
       <r>   -16.2437     0.0000    84.0000 </r>
       <r>   -16.1416     0.0000    84.0000 </r>
       <r>   -16.0395     0.0000    84.0000 </r>
       <r>   -15.9374     0.0000    84.0000 </r>
       <r>   -15.8354     0.0000    84.0000 </r>
       <r>   -15.7333     0.0000    84.0000 </r>
       <r>   -15.6312     0.0000    84.0000 </r>
       <r>   -15.5291    26.6428    86.7200 </r>
       <r>   -15.4270     8.4974    87.7342 </r>
       <r>   -15.3249     9.3807    88.8910 </r>
       <r>   -15.2228     7.4218    89.8244 </r>
       <r>   -15.1207    23.4654    94.5291 </r>
       <r>   -15.0186     4.9420    95.5045 </r>
       <r>   -14.9165     3.2649    96.0000 </r>
       <r>   -14.8144     9.4267    96.9624 </r>
       <r>   -14.7123    13.4023    99.1017 </r>
       <r>   -14.6103    10.3110   100.6527 </r>
       <r>   -14.5082    13.0546   102.4328 </r>
       <r>   -14.4061    42.2954   114.8514 </r>
       <r>   -14.3040     7.4599   115.7283 </r>
       <r>   -14.2019     6.6019   116.5740 </r>
       <r>   -14.0998     3.9026   117.3651 </r>
       <r>   -13.9977     4.8608   117.9962 </r>
       <r>   -13.8956     0.5389   118.0550 </r>
       <r>   -13.7935    19.0180   120.6750 </r>
       <r>   -13.6914     8.1861   121.6357 </r>
       <r>   -13.5893    11.1811   123.2082 </r>
       <r>   -13.4872    23.6142   125.7775 </r>
       <r>   -13.3852    54.4619   131.9935 </r>
       <r>   -13.2831     0.0000   132.0000 </r>
       <r>   -13.1810     0.0000   132.0000 </r>
       <r>   -13.0789     0.0000   132.0000 </r>
       <r>   -12.9768     0.0010   132.0001 </r>
       <r>   -12.8747    56.0066   137.7179 </r>
       <r>   -12.7726    49.6279   144.0000 </r>
       <r>   -12.6705     0.0000   144.0000 </r>
       <r>   -12.5684     0.0000   144.0000 </r>
       <r>   -12.4663     6.0644   144.6191 </r>
       <r>   -12.3642    11.3955   145.9634 </r>
       <r>   -12.2622     9.4879   147.2020 </r>
       <r>   -12.1601    25.2001   149.8727 </r>
       <r>   -12.0580     0.0000   150.0000 </r>
       <r>   -11.9559     0.0000   150.0000 </r>
       <r>   -11.8538     0.0041   150.0004 </r>
       <r>   -11.7517    16.0243   151.8027 </r>
       <r>   -11.6496    35.5885   156.0000 </r>
       <r>   -11.5475     0.0000   156.0000 </r>
       <r>   -11.4454    58.7405   161.9969 </r>
       <r>   -11.3433     0.0000   162.0000 </r>
       <r>   -11.2412    18.7977   163.9191 </r>
       <r>   -11.1391    20.3682   166.5461 </r>
       <r>   -11.0371    10.4365   167.9988 </r>
       <r>   -10.9350    38.2539   171.9054 </r>
       <r>   -10.8329     0.1476   172.0151 </r>
       <r>   -10.7308    91.6714   181.8257 </r>
       <r>   -10.6287    22.6716   184.6480 </r>
       <r>   -10.5266    28.7362   188.0006 </r>
       <r>   -10.4245    36.8944   192.0000 </r>
       <r>   -10.3224    47.5561   196.8551 </r>
       <r>   -10.2203     0.0000   198.0000 </r>
       <r>   -10.1182     0.0000   198.0000 </r>
       <r>   -10.0161     0.0000   198.0000 </r>
       <r>    -9.9141    15.4330   199.5756 </r>
       <r>    -9.8120    28.9855   203.9594 </r>
       <r>    -9.7099    11.0270   206.1591 </r>
       <r>    -9.6078   138.4883   221.3737 </r>
       <r>    -9.5057    18.5852   225.8974 </r>
       <r>    -9.4036    11.2827   227.5519 </r>
       <r>    -9.3015    29.7420   233.2031 </r>
       <r>    -9.1994    24.5230   236.0036 </r>
       <r>    -9.0973    60.2711   242.4532 </r>
       <r>    -8.9952    16.4421   246.4453 </r>
       <r>    -8.8931    22.7960   249.1607 </r>
       <r>    -8.7910    31.1614   254.7482 </r>
       <r>    -8.6890     9.7628   255.9967 </r>
       <r>    -8.5869    37.4942   259.8278 </r>
       <r>    -8.4848    16.2897   261.9964 </r>
       <r>    -8.3827    60.9305   269.9543 </r>
       <r>    -8.2806     6.3248   270.6457 </r>
       <r>    -8.1785    44.5148   276.7114 </r>
       <r>    -8.0764    22.7106   279.4852 </r>
       <r>    -7.9743     9.1939   280.9386 </r>
       <r>    -7.8722    16.7702   283.0455 </r>
       <r>    -7.7701    71.4594   294.4287 </r>
       <r>    -7.6680     3.9803   296.6397 </r>
       <r>    -7.5659    14.2757   298.1908 </r>
       <r>    -7.4639    14.0659   300.0027 </r>
       <r>    -7.3618    19.3934   302.3466 </r>
       <r>    -7.2597    14.1989   304.2829 </r>
       <r>    -7.1576    42.1531   310.6035 </r>
       <r>    -7.0555     6.1236   312.6252 </r>
       <r>    -6.9534    12.4852   314.0413 </r>
       <r>    -6.8513    33.5333   317.9903 </r>
       <r>    -6.7492     0.0000   318.0000 </r>
       <r>    -6.6471     0.0000   318.0000 </r>
       <r>    -6.5450     0.0000   318.0000 </r>
       <r>    -6.4429     0.0000   318.0000 </r>
       <r>    -6.3409     0.0000   318.0000 </r>
       <r>    -6.2388     0.0000   318.0000 </r>
       <r>    -6.1367     0.0000   318.0000 </r>
       <r>    -6.0346     0.0000   318.0000 </r>
       <r>    -5.9325    73.7831   325.5326 </r>
       <r>    -5.8304    39.1798   329.9999 </r>
       <r>    -5.7283    26.8091   332.7370 </r>
       <r>    -5.6262    73.6395   340.9513 </r>
       <r>    -5.5241    52.0110   349.8099 </r>
       <r>    -5.4220    88.3925   359.0241 </r>
       <r>    -5.3199     0.0000   360.0000 </r>
       <r>    -5.2178     0.0000   360.0000 </r>
       <r>    -5.1158     0.0000   360.0000 </r>
       <r>    -5.0137     0.0000   360.0000 </r>
       <r>    -4.9116     0.0000   360.0000 </r>
       <r>    -4.8095     0.0000   360.0000 </r>
       <r>    -4.7074     0.0000   360.0000 </r>
       <r>    -4.6053     0.0000   360.0000 </r>
       <r>    -4.5032     0.0000   360.0000 </r>
       <r>    -4.4011     0.0000   360.0000 </r>
       <r>    -4.2990     0.0000   360.0000 </r>
       <r>    -4.1969    58.7708   366.0000 </r>
       <r>    -4.0948     0.0000   366.0000 </r>
       <r>    -3.9928     0.0000   366.0000 </r>
       <r>    -3.8907     0.0000   366.0000 </r>
       <r>    -3.7886     0.0000   366.0000 </r>
       <r>    -3.6865     0.0000   366.0000 </r>
       <r>    -3.5844     0.0000   366.0000 </r>
       <r>    -3.4823     0.0000   366.0000 </r>
       <r>    -3.3802     0.0000   366.0000 </r>
       <r>    -3.2781     0.0000   366.0000 </r>
       <r>    -3.1760     0.0000   366.0000 </r>
       <r>    -3.0739     0.0000   366.0000 </r>
       <r>    -2.9718     0.0000   366.0000 </r>
       <r>    -2.8697     0.0000   366.0000 </r>
       <r>    -2.7677     0.0000   366.0000 </r>
       <r>    -2.6656     0.0000   366.0000 </r>
       <r>    -2.5635     0.0000   366.0000 </r>
       <r>    -2.4614     0.0000   366.0000 </r>
       <r>    -2.3593     0.0000   366.0000 </r>
       <r>    -2.2572     0.0000   366.0000 </r>
       <r>    -2.1551     0.0000   366.0000 </r>
       <r>    -2.0530     0.0000   366.0000 </r>
       <r>    -1.9509     0.0000   366.0000 </r>
       <r>    -1.8488     0.0000   366.0000 </r>
       <r>    -1.7467     0.0000   366.0000 </r>
       <r>    -1.6446     0.0000   366.0000 </r>
       <r>    -1.5426     0.0000   366.0000 </r>
       <r>    -1.4405     0.1455   366.0149 </r>
       <r>    -1.3384    16.9288   368.2283 </r>
       <r>    -1.2363    22.9902   371.2138 </r>
       <r>    -1.1342    49.7439   378.7119 </r>
       <r>    -1.0321    18.7842   381.8511 </r>
       <r>    -0.9300    11.1186   383.8685 </r>
       <r>    -0.8279   103.8116   395.6653 </r>
       <r>    -0.7258     0.0000   396.0000 </r>
       <r>    -0.6237     0.0000   396.0000 </r>
       <r>    -0.5216     2.1275   396.2172 </r>
       <r>    -0.4196    25.7931   399.9333 </r>
       <r>    -0.3175     9.4834   401.3682 </r>
       <r>    -0.2154     4.8972   402.0000 </r>
       <r>    -0.1133    16.0966   403.6433 </r>
       <r>    -0.0112    30.9368   408.2917 </r>
       <r>     0.0909    26.9275   411.7824 </r>
       <r>     0.1930     8.6130   412.8793 </r>
       <r>     0.2951    19.8907   415.4974 </r>
       <r>     0.3972    45.2490   420.3529 </r>
       <r>     0.4993    20.4344   423.5863 </r>
       <r>     0.6014    28.7974   427.3734 </r>
       <r>     0.7035    54.4568   436.7600 </r>
       <r>     0.8055    46.7445   442.5056 </r>
       <r>     0.9076    65.8213   451.2533 </r>
       <r>     1.0097    28.8324   455.2102 </r>
       <r>     1.1118    31.0775   459.5395 </r>
       <r>     1.2139    37.7947   464.8585 </r>
       <r>     1.3160    65.3333   472.7034 </r>
       <r>     1.4181    63.8475   481.1518 </r>
       <r>     1.5202    60.5207   488.8455 </r>
       <r>     1.6223    55.5734   496.3737 </r>
       <r>     1.7244    46.9706   502.0953 </r>
       <r>     1.8265    70.9727   510.6125 </r>
       <r>     1.9285     1.6325   512.0000 </r>
       <r>     2.0306     0.0000   512.0000 </r>
       <r>     2.1327     0.0000   512.0000 </r>
       <r>     2.2348     0.0000   512.0000 </r>
       <r>     2.3369     0.0000   512.0000 </r>
       <r>     2.4390     0.0000   512.0000 </r>
       <r>     2.5411     0.0000   512.0000 </r>
       <r>     2.6432     0.0000   512.0000 </r>
       <r>     2.7453     0.0000   512.0000 </r>
       <r>     2.8474     0.0000   512.0000 </r>
       <r>     2.9495     0.0000   512.0000 </r>
       <r>     3.0516     0.0000   512.0000 </r>
       <r>     3.1536     0.0000   512.0000 </r>
       <r>     3.2557     0.0000   512.0000 </r>
      </set>
     </set>
    </array>
   </total>
  </dos>
 </calculation>
 <structure name="finalpos" >
  <crystal>
   <varray name="basis" >
    <v>      23.48997073       0.00041987       0.00000000 </v>
    <v>     -11.74445184      20.34025200       0.00000000 </v>
    <v>       0.00000000       0.00000000      20.00000000 </v>
   </varray>
   <i name="volume">   9555.93710728 </i>
   <varray name="rec_basis" >
    <v>       0.04257092       0.02458043       0.00000000 </v>
    <v>      -0.00000088       0.04916309       0.00000000 </v>
    <v>       0.00000000       0.00000000       0.05000000 </v>
   </varray>
  </crystal>
  <varray name="positions" >
   <v>       0.53125973       0.37176867       0.49034114 </v>
   <v>       0.49768133       0.40671303       0.49103351 </v>
   <v>       0.49613994       0.26591688       0.42978206 </v>
   <v>       0.50148034       0.29887003       0.49015722 </v>
   <v>       0.74077677       0.51057307       0.42998320 </v>
   <v>       0.70813280       0.50616099       0.49017586 </v>
   <v>       0.53051892       0.47599784       0.49126992 </v>
   <v>       0.59988297       0.50939792       0.49097632 </v>
   <v>       0.63526159       0.47633981       0.49028777 </v>
   <v>       0.60064498       0.40696201       0.48994821 </v>
   <v>       0.49567532       0.26557610       0.55040590 </v>
   <v>       0.74113794       0.51197317       0.55048012 </v>
   <v>       0.87057641       0.47499007       0.49106744 </v>
   <v>       0.93910792       0.50849440       0.49105754 </v>
   <v>       0.49535770       0.20609372       0.42976023 </v>
   <v>       0.50017314       0.17817077       0.48999448 </v>
   <v>       0.79981025       0.50980164       0.43017690 </v>
   <v>       0.82751986       0.50485532       0.49066306 </v>
   <v>       0.49674778       0.06658318       0.49085369 </v>
   <v>       0.52988576       0.13502215       0.49006359 </v>
   <v>       0.59924778       0.16969242       0.48956596 </v>
   <v>       0.83631129       0.40558540       0.49121135 </v>
   <v>       0.49486986       0.20573817       0.55027110 </v>
   <v>       0.80017102       0.51116768       0.55078375 </v>
   <v>       0.63438716       0.13543291       0.49022813 </v>
   <v>       0.59936550       0.06690375       0.49112975 </v>
   <v>       0.42446265       0.92111089       0.49145841 </v>
   <v>       0.38944866       0.85257569       0.49103122 </v>
   <v>       0.80012002       0.26573353       0.43041894 </v>
   <v>       0.74032697       0.20667233       0.43006219 </v>
   <v>       0.70728765       0.17854484       0.49027425 </v>
   <v>       0.82790815       0.29802522       0.49088936 </v>
   <v>       0.22383921       0.72270569       0.43054765 </v>
   <v>       0.28354452       0.78186289       0.43061255 </v>
   <v>       0.31654636       0.80942697       0.49098099 </v>
   <v>       0.19610917       0.68976328       0.49074671 </v>
   <v>       0.53007089       0.03053667       0.49125013 </v>
   <v>       0.49374841       0.95749468       0.49140406 </v>
   <v>       0.97547989       0.47557492       0.49124366 </v>
   <v>       0.93942135       0.40620951       0.49135968 </v>
   <v>       0.87099453       0.37090043       0.49127445 </v>
   <v>       0.04851061       0.51223543       0.49104637 </v>
   <v>       0.15303429       0.61688488       0.49065493 </v>
   <v>       0.08459617       0.58159839       0.49109499 </v>
   <v>       0.74049061       0.20557528       0.55068029 </v>
   <v>       0.80027952       0.26466188       0.55092549 </v>
   <v>       0.28334224       0.78175046       0.55123187 </v>
   <v>       0.22365490       0.72256291       0.55105605 </v>
   <v>       0.52651101       0.58148743       0.49131886 </v>
   <v>       0.49291660       0.61641583       0.49082690 </v>
   <v>       0.08484428       0.47927543       0.49070786 </v>
   <v>       0.15337367       0.51275387       0.49034713 </v>
   <v>       0.52810210       0.78182413       0.43024019 </v>
   <v>       0.52746036       0.72207526       0.43022997 </v>
   <v>       0.52261808       0.68931268       0.49061390 </v>
   <v>       0.52374872       0.80993523       0.49053929 </v>
   <v>       0.28356998       0.47733284       0.43017261 </v>
   <v>       0.22445997       0.47796451       0.42995689 </v>
   <v>       0.19645914       0.48291898       0.49023798 </v>
   <v>       0.31604068       0.48196098       0.49054479 </v>
   <v>       0.49368259       0.51219419       0.49144363 </v>
   <v>       0.42352154       0.58118313       0.49044266 </v>
   <v>       0.38891480       0.51181170       0.49081846 </v>
   <v>       0.42431391       0.47876939       0.49129310 </v>
   <v>       0.42459234       0.81832515       0.49058193 </v>
   <v>       0.49396182       0.85301858       0.49075746 </v>
   <v>       0.52707195       0.92145690       0.49113085 </v>
   <v>       0.18769136       0.58216932       0.49027049 </v>
   <v>       0.52882302       0.72278101       0.55083958 </v>
   <v>       0.52956843       0.78259483       0.55074748 </v>
   <v>       0.22367205       0.47684685       0.55057130 </v>
   <v>       0.28282551       0.47627669       0.55067235 </v>
   <v>       0.44417524       0.37807043       0.49133445 </v>
   <v>       0.49914165       0.29053098       0.38253339 </v>
   <v>       0.71637504       0.50759537       0.38260774 </v>
   <v>       0.62809744       0.56292020       0.49121740 </v>
   <v>       0.49834511       0.28994036       0.59772876 </v>
   <v>       0.71700419       0.51011765       0.59772138 </v>
   <v>       0.60847785       0.32832560       0.48917831 </v>
   <v>       0.67793720       0.25618550       0.48904476 </v>
   <v>       0.74982343       0.39775024       0.49089243 </v>
   <v>       0.96404345       0.56201140       0.49082175 </v>
   <v>       0.49802802       0.18440455       0.38243690 </v>
   <v>       0.82134295       0.50649205       0.38299757 </v>
   <v>       0.44322258       0.04134954       0.49117057 </v>
   <v>       0.49709097       0.18374013       0.59756328 </v>
   <v>       0.82197715       0.50895069       0.59821536 </v>
   <v>       0.39588295       0.94604129       0.49175762 </v>
   <v>       0.71581479       0.18546731       0.38266480 </v>
   <v>       0.82193967       0.29045821       0.38327500 </v>
   <v>       0.30804169       0.80361834       0.38335959 </v>
   <v>       0.20209519       0.69847622       0.38319034 </v>
   <v>       0.05939509       0.60991402       0.49154121 </v>
   <v>       0.71612531       0.18351003       0.59790203 </v>
   <v>       0.82220218       0.28851540       0.59837332 </v>
   <v>       0.30762035       0.80343802       0.59859385 </v>
   <v>       0.20177760       0.69818671       0.59832406 </v>
   <v>       0.41565961       0.65981296       0.48934337 </v>
   <v>       0.58002370       0.61011221       0.49152803 </v>
   <v>       0.34594273       0.73180955       0.49019412 </v>
   <v>       0.62791667       0.04193673       0.49176678 </v>
   <v>       0.27418512       0.58993035       0.48987692 </v>
   <v>       0.05989089       0.42575430       0.49071892 </v>
   <v>       0.52416126       0.69735519       0.38297545 </v>
   <v>       0.52497459       0.80331933       0.38296757 </v>
   <v>       0.20311129       0.48115703       0.38260287 </v>
   <v>       0.30821668       0.48028899       0.38296895 </v>
   <v>       0.39609982       0.42524199       0.49144264 </v>
   <v>       0.58059346       0.94671985       0.49107060 </v>
   <v>       0.96463719       0.37790734       0.49145310 </v>
   <v>       0.52654625       0.69862346       0.59819584 </v>
   <v>       0.52771103       0.80476099       0.59806942 </v>
   <v>       0.20164748       0.47909194       0.59784408 </v>
   <v>       0.30683873       0.47838302       0.59806613 </v>
   <v>       0.63723769       0.37622245       0.48944832 </v>
   <v>       0.63004862       0.23703202       0.48877466 </v>
   <v>       0.76896901       0.36900759       0.49123265 </v>
   <v>       0.38692925       0.61192150       0.48983924 </v>
   <v>       0.39382657       0.75099474       0.49005254 </v>
   <v>       0.25502748       0.61866648       0.49001173 </v>
  </varray>
 </structure>
</modeling>
