<?xml version="1.0" encoding="ISO-8859-1"?>
<modeling>
 <generator>
  <i name="program" type="string">vasp </i>
  <i name="version" type="string">5.4.4.18Apr17-6-g9f103f2a35  </i>
  <i name="subversion" type="string">(build Jun 07 2020 16:50:00) complex            parallel </i>
  <i name="platform" type="string">LinuxIFC </i>
  <i name="date" type="string">2023 02 19 </i>
  <i name="time" type="string">16:55:24 </i>
 </generator>
 <incar>
  <i type="string" name="SYSTEM">Simulation for cell shape cell volume r</i>
  <i type="int" name="ISTART">     1</i>
  <i type="string" name="PREC">high</i>
  <i type="string" name="ALGO">48</i>
  <i type="int" name="ICHARG">    11</i>
  <i type="int" name="NELM">   200</i>
  <i type="int" name="IBRION">    -1</i>
  <i name="EDIFF">      0.00001000</i>
  <i name="EDIFFG">     -0.01000000</i>
  <i type="int" name="NSW">     0</i>
  <i type="int" name="ISIF">     2</i>
  <i name="ENCUT">    500.00000000</i>
  <i name="POTIM">      0.30000000</i>
  <i type="string" name="LREAL">A</i>
  <i type="int" name="ISMEAR">     0</i>
  <i name="SIGMA">      0.01000000</i>
  <i type="int" name="NWRITE">     0</i>
  <i type="logical" name="LWAVE"> F  </i>
  <i type="logical" name="LCHARG"> F  </i>
  <v type="int" name="KPOINT_BSE">    -1     0     0     0</v>
  <i type="int" name="NELM">   200</i>
  <i type="string" name="GGA">PE</i>
 </incar>
 <structure name="primitive_cell" >
  <crystal>
   <varray name="basis" >
    <v>      14.14122326      -0.05309099       0.00000000 </v>
    <v>      -7.10780252      13.01989542       0.00000000 </v>
    <v>       0.00000000       0.00000000      20.00000000 </v>
   </varray>
   <i name="volume">   3674.79775553 </i>
   <varray name="rec_basis" >
    <v>       0.07086047       0.03868405       0.00000000 </v>
    <v>       0.00028895       0.07696327       0.00000000 </v>
    <v>       0.00000000       0.00000000       0.05000000 </v>
   </varray>
  </crystal>
  <varray name="positions" >
   <v>      -0.42791668       0.49876094       0.43931106 </v>
   <v>      -0.47439880      -0.44205781       0.43615852 </v>
   <v>      -0.47343095       0.40976543       0.47384643 </v>
   <v>       0.42057095       0.37662832      -0.49948020 </v>
   <v>       0.43550768      -0.46261064       0.47699193 </v>
   <v>      -0.40326548       0.36288454       0.48509890 </v>
   <v>      -0.42857982      -0.35522652       0.38586295 </v>
   <v>      -0.25841817      -0.48832837       0.48369062 </v>
   <v>       0.38447121       0.44454879      -0.49400595 </v>
   <v>      -0.29115292       0.42892489       0.48973687 </v>
   <v>      -0.33438854      -0.28851728       0.38397905 </v>
   <v>       0.49951118      -0.35448988       0.34116323 </v>
   <v>       0.42717831      -0.41169128       0.34950838 </v>
   <v>      -0.44308873       0.25707817       0.49311041 </v>
   <v>       0.39188642      -0.39124225       0.48722966 </v>
   <v>       0.33535042       0.26963326      -0.47755376 </v>
   <v>      -0.45279647      -0.25518118       0.49488536 </v>
   <v>       0.47081452       0.20532194       0.48819995 </v>
   <v>      -0.22109814       0.38947364      -0.49650252 </v>
   <v>       0.46018020      -0.28464759       0.49297140 </v>
   <v>       0.32641485       0.18951699      -0.49991843 </v>
   <v>       0.28061623       0.34326914      -0.42911629 </v>
   <v>       0.26349730       0.27069315      -0.43383134 </v>
   <v>      -0.37305930       0.21719397      -0.49467816 </v>
   <v>      -0.32961437      -0.15355627       0.37581270 </v>
   <v>       0.27985500      -0.43132068       0.49114658 </v>
   <v>       0.22735018       0.48573235       0.48778892 </v>
   <v>      -0.06255381      -0.45669582       0.46965988 </v>
   <v>      -0.26213357       0.28278683      -0.49038230 </v>
   <v>      -0.10455301       0.46082751      -0.48961612 </v>
   <v>      -0.36842003      -0.11529439       0.38841910 </v>
   <v>      -0.27505727      -0.08976942       0.48597040 </v>
   <v>       0.47614932       0.17131739      -0.37892651 </v>
   <v>      -0.34371474      -0.08402558       0.45217285 </v>
   <v>       0.41647169      -0.21820280      -0.49938542 </v>
   <v>       0.03753035      -0.32178100       0.36348550 </v>
   <v>      -0.20878083       0.25021954      -0.48171794 </v>
   <v>      -0.41841036       0.10521428      -0.48664153 </v>
   <v>       0.04354734      -0.39334336       0.46827666 </v>
   <v>       0.23508980      -0.36570585       0.49843388 </v>
   <v>       0.07917700      -0.29845550       0.42581841 </v>
   <v>       0.06002484      -0.25635127       0.34014823 </v>
   <v>      -0.03410007       0.44858245      -0.44458812 </v>
   <v>       0.43862015       0.08177013      -0.39587141 </v>
   <v>       0.30364212      -0.25950634      -0.49742377 </v>
   <v>       0.48775008       0.04303760      -0.44870115 </v>
   <v>       0.48303023      -0.10530148      -0.49111376 </v>
   <v>      -0.15879380       0.32781185      -0.36351349 </v>
   <v>      -0.41333325      -0.04197400       0.48090021 </v>
   <v>      -0.36774200       0.06038465       0.48204234 </v>
   <v>       0.13713997      -0.21112244       0.44608013 </v>
   <v>      -0.06669229       0.37872041      -0.38355716 </v>
   <v>       0.11591489      -0.41501540      -0.49470653 </v>
   <v>       0.07286441      -0.49299928      -0.45094831 </v>
   <v>       0.08329057       0.43269332      -0.37721566 </v>
   <v>       0.34986780       0.00519838      -0.36727017 </v>
   <v>       0.26976398      -0.20791602      -0.49160069 </v>
   <v>       0.43951992      -0.05933005      -0.45401756 </v>
   <v>       0.33926600      -0.05901688      -0.38922701 </v>
   <v>       0.01911948       0.38173476      -0.35194274 </v>
  </varray>
 </structure>
 <varray name="primitive_index" >
  <v type="int" >        1 </v>
  <v type="int" >       39 </v>
  <v type="int" >       48 </v>
  <v type="int" >       19 </v>
  <v type="int" >       40 </v>
  <v type="int" >       21 </v>
  <v type="int" >       41 </v>
  <v type="int" >        8 </v>
  <v type="int" >        6 </v>
  <v type="int" >       26 </v>
  <v type="int" >       54 </v>
  <v type="int" >       55 </v>
  <v type="int" >       15 </v>
  <v type="int" >       22 </v>
  <v type="int" >       27 </v>
  <v type="int" >       20 </v>
  <v type="int" >       12 </v>
  <v type="int" >        9 </v>
  <v type="int" >       25 </v>
  <v type="int" >       28 </v>
  <v type="int" >       49 </v>
  <v type="int" >       18 </v>
  <v type="int" >       60 </v>
  <v type="int" >       23 </v>
  <v type="int" >       14 </v>
  <v type="int" >       32 </v>
  <v type="int" >       11 </v>
  <v type="int" >        2 </v>
  <v type="int" >       24 </v>
  <v type="int" >       42 </v>
  <v type="int" >       53 </v>
  <v type="int" >       52 </v>
  <v type="int" >       58 </v>
  <v type="int" >       38 </v>
  <v type="int" >       29 </v>
  <v type="int" >       51 </v>
  <v type="int" >        7 </v>
  <v type="int" >       45 </v>
  <v type="int" >       33 </v>
  <v type="int" >       31 </v>
  <v type="int" >       35 </v>
  <v type="int" >       13 </v>
  <v type="int" >       43 </v>
  <v type="int" >       47 </v>
  <v type="int" >       30 </v>
  <v type="int" >       46 </v>
  <v type="int" >       37 </v>
  <v type="int" >       56 </v>
  <v type="int" >       36 </v>
  <v type="int" >        3 </v>
  <v type="int" >       50 </v>
  <v type="int" >       44 </v>
  <v type="int" >       34 </v>
  <v type="int" >        4 </v>
  <v type="int" >       16 </v>
  <v type="int" >       59 </v>
  <v type="int" >       10 </v>
  <v type="int" >        5 </v>
  <v type="int" >       17 </v>
  <v type="int" >       57 </v>
 </varray>
 <kpoints>
  <generation param="listgenerated">
   <i name="divisions" type="int">      20 </i>
   <v>       0.00000000       0.00000000       0.00000000 </v>
   <v>       0.50000000      -0.50000000       0.00000000 </v>
   <v>       0.64804681      -0.32188372       0.00000000 </v>
   <v>       0.50000000       0.00000000       0.00000000 </v>
   <v>       0.35195319       0.32188372       0.00000000 </v>
   <v>       0.00000000       0.50000000       0.00000000 </v>
   <v>       0.00000000       0.00000000       0.00000000 </v>
  </generation>
  <varray name="kpointlist" >
   <v>       0.00000000       0.00000000       0.00000000 </v>
   <v>       0.02631579      -0.02631579       0.00000000 </v>
   <v>       0.05263158      -0.05263158       0.00000000 </v>
   <v>       0.07894737      -0.07894737       0.00000000 </v>
   <v>       0.10526316      -0.10526316       0.00000000 </v>
   <v>       0.13157895      -0.13157895       0.00000000 </v>
   <v>       0.15789474      -0.15789474       0.00000000 </v>
   <v>       0.18421053      -0.18421053       0.00000000 </v>
   <v>       0.21052632      -0.21052632       0.00000000 </v>
   <v>       0.23684211      -0.23684211       0.00000000 </v>
   <v>       0.26315789      -0.26315789       0.00000000 </v>
   <v>       0.28947368      -0.28947368       0.00000000 </v>
   <v>       0.31578947      -0.31578947       0.00000000 </v>
   <v>       0.34210526      -0.34210526       0.00000000 </v>
   <v>       0.36842105      -0.36842105       0.00000000 </v>
   <v>       0.39473684      -0.39473684       0.00000000 </v>
   <v>       0.42105263      -0.42105263       0.00000000 </v>
   <v>       0.44736842      -0.44736842       0.00000000 </v>
   <v>       0.47368421      -0.47368421       0.00000000 </v>
   <v>       0.50000000      -0.50000000       0.00000000 </v>
   <v>       0.50000000      -0.50000000       0.00000000 </v>
   <v>       0.50779194      -0.49062546       0.00000000 </v>
   <v>       0.51558388      -0.48125092       0.00000000 </v>
   <v>       0.52337581      -0.47187638       0.00000000 </v>
   <v>       0.53116775      -0.46250184       0.00000000 </v>
   <v>       0.53895969      -0.45312729       0.00000000 </v>
   <v>       0.54675163      -0.44375275       0.00000000 </v>
   <v>       0.55454356      -0.43437821       0.00000000 </v>
   <v>       0.56233550      -0.42500367       0.00000000 </v>
   <v>       0.57012744      -0.41562913       0.00000000 </v>
   <v>       0.57791938      -0.40625459       0.00000000 </v>
   <v>       0.58571131      -0.39688005       0.00000000 </v>
   <v>       0.59350325      -0.38750551       0.00000000 </v>
   <v>       0.60129519      -0.37813097       0.00000000 </v>
   <v>       0.60908713      -0.36875642       0.00000000 </v>
   <v>       0.61687906      -0.35938188       0.00000000 </v>
   <v>       0.62467100      -0.35000734       0.00000000 </v>
   <v>       0.63246294      -0.34063280       0.00000000 </v>
   <v>       0.64025488      -0.33125826       0.00000000 </v>
   <v>       0.64804681      -0.32188372       0.00000000 </v>
   <v>       0.64804681      -0.32188372       0.00000000 </v>
   <v>       0.64025488      -0.30494247       0.00000000 </v>
   <v>       0.63246294      -0.28800122       0.00000000 </v>
   <v>       0.62467100      -0.27105997       0.00000000 </v>
   <v>       0.61687906      -0.25411872       0.00000000 </v>
   <v>       0.60908713      -0.23717748       0.00000000 </v>
   <v>       0.60129519      -0.22023623       0.00000000 </v>
   <v>       0.59350325      -0.20329498       0.00000000 </v>
   <v>       0.58571131      -0.18635373       0.00000000 </v>
   <v>       0.57791938      -0.16941248       0.00000000 </v>
   <v>       0.57012744      -0.15247123       0.00000000 </v>
   <v>       0.56233550      -0.13552999       0.00000000 </v>
   <v>       0.55454356      -0.11858874       0.00000000 </v>
   <v>       0.54675163      -0.10164749       0.00000000 </v>
   <v>       0.53895969      -0.08470624       0.00000000 </v>
   <v>       0.53116775      -0.06776499       0.00000000 </v>
   <v>       0.52337581      -0.05082374       0.00000000 </v>
   <v>       0.51558388      -0.03388250       0.00000000 </v>
   <v>       0.50779194      -0.01694125       0.00000000 </v>
   <v>       0.50000000       0.00000000       0.00000000 </v>
   <v>       0.50000000       0.00000000       0.00000000 </v>
   <v>       0.49220806       0.01694125       0.00000000 </v>
   <v>       0.48441612       0.03388250       0.00000000 </v>
   <v>       0.47662419       0.05082374       0.00000000 </v>
   <v>       0.46883225       0.06776499       0.00000000 </v>
   <v>       0.46104031       0.08470624       0.00000000 </v>
   <v>       0.45324837       0.10164749       0.00000000 </v>
   <v>       0.44545644       0.11858874       0.00000000 </v>
   <v>       0.43766450       0.13552999       0.00000000 </v>
   <v>       0.42987256       0.15247123       0.00000000 </v>
   <v>       0.42208062       0.16941248       0.00000000 </v>
   <v>       0.41428869       0.18635373       0.00000000 </v>
   <v>       0.40649675       0.20329498       0.00000000 </v>
   <v>       0.39870481       0.22023623       0.00000000 </v>
   <v>       0.39091287       0.23717748       0.00000000 </v>
   <v>       0.38312094       0.25411872       0.00000000 </v>
   <v>       0.37532900       0.27105997       0.00000000 </v>
   <v>       0.36753706       0.28800122       0.00000000 </v>
   <v>       0.35974512       0.30494247       0.00000000 </v>
   <v>       0.35195319       0.32188372       0.00000000 </v>
   <v>       0.35195319       0.32188372       0.00000000 </v>
   <v>       0.33342933       0.33125826       0.00000000 </v>
   <v>       0.31490548       0.34063280       0.00000000 </v>
   <v>       0.29638163       0.35000734       0.00000000 </v>
   <v>       0.27785778       0.35938188       0.00000000 </v>
   <v>       0.25933393       0.36875642       0.00000000 </v>
   <v>       0.24081007       0.37813097       0.00000000 </v>
   <v>       0.22228622       0.38750551       0.00000000 </v>
   <v>       0.20376237       0.39688005       0.00000000 </v>
   <v>       0.18523852       0.40625459       0.00000000 </v>
   <v>       0.16671467       0.41562913       0.00000000 </v>
   <v>       0.14819081       0.42500367       0.00000000 </v>
   <v>       0.12966696       0.43437821       0.00000000 </v>
   <v>       0.11114311       0.44375275       0.00000000 </v>
   <v>       0.09261926       0.45312729       0.00000000 </v>
   <v>       0.07409541       0.46250184       0.00000000 </v>
   <v>       0.05557156       0.47187638       0.00000000 </v>
   <v>       0.03704770       0.48125092       0.00000000 </v>
   <v>       0.01852385       0.49062546       0.00000000 </v>
   <v>       0.00000000       0.50000000       0.00000000 </v>
   <v>       0.00000000       0.50000000       0.00000000 </v>
   <v>       0.00000000       0.47368421       0.00000000 </v>
   <v>       0.00000000       0.44736842       0.00000000 </v>
   <v>       0.00000000       0.42105263       0.00000000 </v>
   <v>       0.00000000       0.39473684       0.00000000 </v>
   <v>       0.00000000       0.36842105       0.00000000 </v>
   <v>       0.00000000       0.34210526       0.00000000 </v>
   <v>       0.00000000       0.31578947       0.00000000 </v>
   <v>       0.00000000       0.28947368       0.00000000 </v>
   <v>       0.00000000       0.26315789       0.00000000 </v>
   <v>       0.00000000       0.23684211       0.00000000 </v>
   <v>       0.00000000       0.21052632       0.00000000 </v>
   <v>       0.00000000       0.18421053       0.00000000 </v>
   <v>       0.00000000       0.15789474       0.00000000 </v>
   <v>       0.00000000       0.13157895       0.00000000 </v>
   <v>       0.00000000       0.10526316       0.00000000 </v>
   <v>       0.00000000       0.07894737       0.00000000 </v>
   <v>       0.00000000       0.05263158       0.00000000 </v>
   <v>       0.00000000       0.02631579       0.00000000 </v>
   <v>       0.00000000       0.00000000       0.00000000 </v>
  </varray>
  <varray name="weights" >
   <v>       0.00833333 </v>
   <v>       0.00833333 </v>
   <v>       0.00833333 </v>
   <v>       0.00833333 </v>
   <v>       0.00833333 </v>
   <v>       0.00833333 </v>
   <v>       0.00833333 </v>
   <v>       0.00833333 </v>
   <v>       0.00833333 </v>
   <v>       0.00833333 </v>
   <v>       0.00833333 </v>
   <v>       0.00833333 </v>
   <v>       0.00833333 </v>
   <v>       0.00833333 </v>
   <v>       0.00833333 </v>
   <v>       0.00833333 </v>
   <v>       0.00833333 </v>
   <v>       0.00833333 </v>
   <v>       0.00833333 </v>
   <v>       0.00833333 </v>
   <v>       0.00833333 </v>
   <v>       0.00833333 </v>
   <v>       0.00833333 </v>
   <v>       0.00833333 </v>
   <v>       0.00833333 </v>
   <v>       0.00833333 </v>
   <v>       0.00833333 </v>
   <v>       0.00833333 </v>
   <v>       0.00833333 </v>
   <v>       0.00833333 </v>
   <v>       0.00833333 </v>
   <v>       0.00833333 </v>
   <v>       0.00833333 </v>
   <v>       0.00833333 </v>
   <v>       0.00833333 </v>
   <v>       0.00833333 </v>
   <v>       0.00833333 </v>
   <v>       0.00833333 </v>
   <v>       0.00833333 </v>
   <v>       0.00833333 </v>
   <v>       0.00833333 </v>
   <v>       0.00833333 </v>
   <v>       0.00833333 </v>
   <v>       0.00833333 </v>
   <v>       0.00833333 </v>
   <v>       0.00833333 </v>
   <v>       0.00833333 </v>
   <v>       0.00833333 </v>
   <v>       0.00833333 </v>
   <v>       0.00833333 </v>
   <v>       0.00833333 </v>
   <v>       0.00833333 </v>
   <v>       0.00833333 </v>
   <v>       0.00833333 </v>
   <v>       0.00833333 </v>
   <v>       0.00833333 </v>
   <v>       0.00833333 </v>
   <v>       0.00833333 </v>
   <v>       0.00833333 </v>
   <v>       0.00833333 </v>
   <v>       0.00833333 </v>
   <v>       0.00833333 </v>
   <v>       0.00833333 </v>
   <v>       0.00833333 </v>
   <v>       0.00833333 </v>
   <v>       0.00833333 </v>
   <v>       0.00833333 </v>
   <v>       0.00833333 </v>
   <v>       0.00833333 </v>
   <v>       0.00833333 </v>
   <v>       0.00833333 </v>
   <v>       0.00833333 </v>
   <v>       0.00833333 </v>
   <v>       0.00833333 </v>
   <v>       0.00833333 </v>
   <v>       0.00833333 </v>
   <v>       0.00833333 </v>
   <v>       0.00833333 </v>
   <v>       0.00833333 </v>
   <v>       0.00833333 </v>
   <v>       0.00833333 </v>
   <v>       0.00833333 </v>
   <v>       0.00833333 </v>
   <v>       0.00833333 </v>
   <v>       0.00833333 </v>
   <v>       0.00833333 </v>
   <v>       0.00833333 </v>
   <v>       0.00833333 </v>
   <v>       0.00833333 </v>
   <v>       0.00833333 </v>
   <v>       0.00833333 </v>
   <v>       0.00833333 </v>
   <v>       0.00833333 </v>
   <v>       0.00833333 </v>
   <v>       0.00833333 </v>
   <v>       0.00833333 </v>
   <v>       0.00833333 </v>
   <v>       0.00833333 </v>
   <v>       0.00833333 </v>
   <v>       0.00833333 </v>
   <v>       0.00833333 </v>
   <v>       0.00833333 </v>
   <v>       0.00833333 </v>
   <v>       0.00833333 </v>
   <v>       0.00833333 </v>
   <v>       0.00833333 </v>
   <v>       0.00833333 </v>
   <v>       0.00833333 </v>
   <v>       0.00833333 </v>
   <v>       0.00833333 </v>
   <v>       0.00833333 </v>
   <v>       0.00833333 </v>
   <v>       0.00833333 </v>
   <v>       0.00833333 </v>
   <v>       0.00833333 </v>
   <v>       0.00833333 </v>
   <v>       0.00833333 </v>
   <v>       0.00833333 </v>
   <v>       0.00833333 </v>
   <v>       0.00833333 </v>
  </varray>
 </kpoints>
 <parameters>
  <separator name="general" >
   <i type="string" name="SYSTEM">Simulation for cell shape cell volume r</i>
   <i type="logical" name="LCOMPAT"> F  </i>
  </separator>
  <separator name="electronic" >
   <i type="string" name="PREC">high</i>
   <i name="ENMAX">    500.00000000</i>
   <i name="ENAUG">    644.87300000</i>
   <i name="EDIFF">      0.00001000</i>
   <i type="int" name="IALGO">    38</i>
   <i type="int" name="IWAVPR">    10</i>
   <i type="int" name="NBANDS">   160</i>
   <i name="NELECT">    234.00000000</i>
   <i type="int" name="TURBO">     0</i>
   <i type="int" name="IRESTART">     0</i>
   <i type="int" name="NREBOOT">     0</i>
   <i type="int" name="NMIN">     0</i>
   <i name="EREF">      0.00000000</i>
   <separator name="electronic smearing" >
    <i type="int" name="ISMEAR">     0</i>
    <i name="SIGMA">      0.01000000</i>
    <i name="KSPACING">      0.50000000</i>
    <i type="logical" name="KGAMMA"> T  </i>
   </separator>
   <separator name="electronic projectors" >
    <i type="logical" name="LREAL"> T  </i>
    <v name="ROPT">     -0.00040000     -0.00040000     -0.00040000     -0.00040000</v>
    <i type="int" name="LMAXPAW">  -100</i>
    <i type="int" name="LMAXMIX">     2</i>
    <i type="logical" name="NLSPLINE"> F  </i>
   </separator>
   <separator name="electronic startup" >
    <i type="int" name="ISTART">     1</i>
    <i type="int" name="ICHARG">    11</i>
    <i type="int" name="INIWAV">     1</i>
   </separator>
   <separator name="electronic spin" >
    <i type="int" name="ISPIN">     1</i>
    <i type="logical" name="LNONCOLLINEAR"> F  </i>
    <v name="MAGMOM">      1.00000000      1.00000000      1.00000000      1.00000000      1.00000000      1.00000000      1.00000000      1.00000000      1.00000000      1.00000000      1.00000000      1.00000000      1.00000000      1.00000000      1.00000000      1.00000000      1.00000000      1.00000000      1.00000000      1.00000000
      1.00000000      1.00000000      1.00000000      1.00000000      1.00000000      1.00000000      1.00000000      1.00000000      1.00000000      1.00000000      1.00000000      1.00000000      1.00000000      1.00000000      1.00000000      1.00000000      1.00000000      1.00000000      1.00000000      1.00000000
      1.00000000      1.00000000      1.00000000      1.00000000      1.00000000      1.00000000      1.00000000      1.00000000      1.00000000      1.00000000      1.00000000      1.00000000      1.00000000      1.00000000      1.00000000      1.00000000      1.00000000      1.00000000      1.00000000      1.00000000
</v>
    <i name="NUPDOWN">     -1.00000000</i>
    <i type="logical" name="LSORBIT"> F  </i>
    <v name="SAXIS">      0.00000000      0.00000000      1.00000000</v>
    <i type="logical" name="LSPIRAL"> F  </i>
    <v name="QSPIRAL">      0.00000000      0.00000000      0.00000000</v>
    <i type="logical" name="LZEROZ"> F  </i>
   </separator>
   <separator name="electronic exchange-correlation" >
    <i type="logical" name="LASPH"> F  </i>
    <i type="logical" name="LMETAGGA"> F  </i>
   </separator>
   <separator name="electronic convergence" >
    <i type="int" name="NELM">   200</i>
    <i type="int" name="NELMDL">     0</i>
    <i type="int" name="NELMIN">     2</i>
    <i name="ENINI">    500.00000000</i>
    <separator name="electronic convergence detail" >
     <i type="logical" name="LDIAG"> T  </i>
     <i type="logical" name="LSUBROT"> F  </i>
     <i name="WEIMIN">      0.00000000</i>
     <i name="EBREAK">      0.00000002</i>
     <i name="DEPER">      0.30000000</i>
     <i type="int" name="NRMM">     4</i>
     <i name="TIME">      0.40000000</i>
    </separator>
   </separator>
   <separator name="electronic mixer" >
    <i name="AMIX">      0.40000000</i>
    <i name="BMIX">      1.00000000</i>
    <i name="AMIN">      0.10000000</i>
    <i name="AMIX_MAG">      1.60000000</i>
    <i name="BMIX_MAG">      1.00000000</i>
    <separator name="electronic mixer details" >
     <i type="int" name="IMIX">     4</i>
     <i type="logical" name="MIXFIRST"> F  </i>
     <i type="int" name="MAXMIX">   -45</i>
     <i name="WC">    100.00000000</i>
     <i type="int" name="INIMIX">     1</i>
     <i type="int" name="MIXPRE">     1</i>
     <i type="int" name="MREMOVE">     5</i>
    </separator>
   </separator>
   <separator name="electronic dipolcorrection" >
    <i type="logical" name="LDIPOL"> F  </i>
    <i type="logical" name="LMONO"> F  </i>
    <i type="int" name="IDIPOL">     0</i>
    <i name="EPSILON">      1.00000000</i>
    <v name="DIPOL">   -100.00000000   -100.00000000   -100.00000000</v>
    <i name="EFIELD">      0.00000000</i>
   </separator>
  </separator>
  <separator name="grids" >
   <i type="int" name="NGX">   108</i>
   <i type="int" name="NGY">   108</i>
   <i type="int" name="NGZ">   150</i>
   <i type="int" name="NGXF">   160</i>
   <i type="int" name="NGYF">   168</i>
   <i type="int" name="NGZF">   224</i>
   <i type="logical" name="ADDGRID"> F  </i>
  </separator>
  <separator name="ionic" >
   <i type="int" name="NSW">     0</i>
   <i type="int" name="IBRION">    -1</i>
   <i type="int" name="MDALGO">     0</i>
   <i type="int" name="ISIF">     2</i>
   <i name="PSTRESS">      0.00000000</i>
   <i name="EDIFFG">     -0.01000000</i>
   <i type="int" name="NFREE">     0</i>
   <i name="POTIM">      0.30000000</i>
   <i name="SMASS">     -3.00000000</i>
   <i name="SCALEE">      1.00000000</i>
  </separator>
  <separator name="ionic md" >
   <i name="TEBEG">      0.00010000</i>
   <i name="TEEND">      0.00010000</i>
   <i type="int" name="NBLOCK">     1</i>
   <i type="int" name="KBLOCK">     1</i>
   <i type="int" name="NPACO">   256</i>
   <i name="APACO">     16.00000000</i>
  </separator>
  <separator name="symmetry" >
   <i type="int" name="ISYM">     2</i>
   <i name="SYMPREC">      0.00001000</i>
  </separator>
  <separator name="dos" >
   <i type="int" name="LORBIT">     0</i>
   <v name="RWIGS">     -1.00000000     -1.00000000     -1.00000000     -1.00000000</v>
   <i type="int" name="NEDOS">   301</i>
   <i name="EMIN">     10.00000000</i>
   <i name="EMAX">    -10.00000000</i>
   <i name="EFERMI">      0.00000000</i>
  </separator>
  <separator name="writing" >
   <i type="int" name="NWRITE">     0</i>
   <i type="logical" name="LWAVE"> F  </i>
   <i type="logical" name="LDOWNSAMPLE"> F  </i>
   <i type="logical" name="LCHARG"> F  </i>
   <i type="logical" name="LPARD"> F  </i>
   <i type="logical" name="LVTOT"> F  </i>
   <i type="logical" name="LVHAR"> F  </i>
   <i type="logical" name="LELF"> F  </i>
   <i type="logical" name="LOPTICS"> F  </i>
   <v name="STM">      0.00000000      0.00000000      0.00000000      0.00000000      0.00000000      0.00000000      0.00000000</v>
  </separator>
  <separator name="performance" >
   <i type="int" name="NPAR">    16</i>
   <i type="int" name="NSIM">     4</i>
   <i type="int" name="NBLK">    -1</i>
   <i type="logical" name="LPLANE"> T  </i>
   <i type="logical" name="LSCALAPACK"> T  </i>
   <i type="logical" name="LSCAAWARE"> F  </i>
   <i type="logical" name="LSCALU"> F  </i>
   <i type="logical" name="LASYNC"> F  </i>
   <i type="logical" name="LORBITALREAL"> F  </i>
  </separator>
  <separator name="miscellaneous" >
   <i type="int" name="IDIOT">     3</i>
   <i type="int" name="ISPECIAL">     0</i>
   <i type="logical" name="LMUSIC"> F  </i>
   <v name="POMASS">     14.00100000      1.00000000     12.01100000     16.00000000</v>
   <v name="DARWINR">      0.00000000      0.00000000      0.00000000      0.00000000</v>
   <v name="DARWINV">      1.00000000      1.00000000      1.00000000      1.00000000</v>
   <i type="logical" name="LCORR"> T  </i>
  </separator>
  <i type="logical" name="GGA_COMPAT"> T  </i>
  <i type="logical" name="LBERRY"> F  </i>
  <i type="int" name="ICORELEVEL">     0</i>
  <i type="logical" name="LDAU"> F  </i>
  <i type="int" name="I_CONSTRAINED_M">     0</i>
  <separator name="electronic exchange-correlation" >
   <i type="string" name="GGA">PE</i>
   <i type="int" name="VOSKOWN">     0</i>
   <i type="logical" name="LHFCALC"> F  </i>
   <i type="string" name="PRECFOCK"></i>
   <i type="logical" name="LSYMGRAD"> F  </i>
   <i type="logical" name="LHFONE"> F  </i>
   <i type="logical" name="LRHFCALC"> F  </i>
   <i type="logical" name="LTHOMAS"> F  </i>
   <i type="logical" name="LMODELHF"> F  </i>
   <i name="ENCUT4O">     -1.00000000</i>
   <i type="int" name="EXXOEP">     0</i>
   <i type="int" name="FOURORBIT">     0</i>
   <i name="AEXX">      0.00000000</i>
   <i name="HFALPHA">      0.00000000</i>
   <i name="MCALPHA">      0.00000000</i>
   <i name="ALDAX">      1.00000000</i>
   <i name="AGGAX">      1.00000000</i>
   <i name="ALDAC">      1.00000000</i>
   <i name="AGGAC">      1.00000000</i>
   <i type="int" name="NKREDX">     1</i>
   <i type="int" name="NKREDY">     1</i>
   <i type="int" name="NKREDZ">     1</i>
   <i type="logical" name="SHIFTRED"> F  </i>
   <i type="logical" name="ODDONLY"> F  </i>
   <i type="logical" name="EVENONLY"> F  </i>
   <i type="int" name="LMAXFOCK">     0</i>
   <i type="int" name="NMAXFOCKAE">     0</i>
   <i type="logical" name="LFOCKAEDFT"> F  </i>
   <i name="HFSCREEN">      0.00000000</i>
   <i name="HFSCREENC">      0.00000000</i>
   <i type="int" name="NBANDSGWLOW">     0</i>
  </separator>
  <separator name="vdW DFT" >
   <i type="logical" name="LUSE_VDW"> F  </i>
   <i name="Zab_VDW">     -0.84910000</i>
   <i name="PARAM1">      0.12340000</i>
   <i name="PARAM2">      1.00000000</i>
   <i name="PARAM3">      0.00000000</i>
  </separator>
  <separator name="model GW" >
   <i type="int" name="MODEL_GW">     0</i>
   <i name="MODEL_EPS0">     36.74797756</i>
   <i name="MODEL_ALPHA">      1.00000000</i>
  </separator>
  <separator name="linear response parameters" >
   <i type="logical" name="LEPSILON"> F  </i>
   <i type="logical" name="LRPA"> F  </i>
   <i type="logical" name="LNABLA"> F  </i>
   <i type="logical" name="LVEL"> F  </i>
   <i type="int" name="KINTER">     0</i>
   <i name="CSHIFT">      0.10000000</i>
   <i name="OMEGAMAX">     -1.00000000</i>
   <i name="DEG_THRESHOLD">      0.00200000</i>
   <i name="RTIME">     -0.10000000</i>
   <i name="WPLASMAI">      0.00000000</i>
   <v name="DFIELD">      0.00000000      0.00000000      0.00000000</v>
   <v name="WPLASMA">      0.00000000      0.00000000      0.00000000      0.00000000      0.00000000      0.00000000      0.00000000      0.00000000      0.00000000</v>
  </separator>
  <separator name="orbital magnetization" >
   <i type="logical" name="NUCIND"> F  </i>
   <v name="MAGPOS">      0.00000000      0.00000000      0.00000000</v>
   <i type="logical" name="LNICSALL"> T  </i>
   <i type="logical" name="ORBITALMAG"> F  </i>
   <i type="logical" name="LMAGBLOCH"> F  </i>
   <i type="logical" name="LCHIMAG"> F  </i>
   <i type="logical" name="LGAUGE"> T  </i>
   <i type="int" name="MAGATOM">     0</i>
   <v name="MAGDIPOL">      0.00000000      0.00000000      0.00000000</v>
   <v name="AVECCONST">      0.00000000      0.00000000      0.00000000</v>
  </separator>
  <separator name="response functions" >
   <i type="logical" name="LADDER"> F  </i>
   <i type="logical" name="LRPAFORCE"> F  </i>
   <i type="logical" name="LFXC"> F  </i>
   <i type="logical" name="LHARTREE"> T  </i>
   <i type="int" name="IBSE">     0</i>
   <v type="int" name="KPOINT">    -1     0     0     0</v>
   <i type="logical" name="LTCTE"> F  </i>
   <i type="logical" name="LTETE"> F  </i>
   <i type="logical" name="LTRIPLET"> F  </i>
   <i type="logical" name="LFXCEPS"> F  </i>
   <i type="logical" name="LFXHEG"> F  </i>
   <i type="int" name="NATURALO">     2</i>
   <i type="logical" name="L2ORDER"> F  </i>
   <i type="logical" name="LMP2LT"> F  </i>
   <i type="logical" name="LUSEW"> F  </i>
   <i name="ENCUTGW">     -2.00000000</i>
   <i name="ENCUTGWSOFT">     -2.00000000</i>
   <i name="ENCUTLF">     -1.00000000</i>
   <i type="int" name="LMAXMP2">    -1</i>
   <i name="SCISSOR">      0.00000000</i>
   <i type="int" name="NOMEGA">     0</i>
   <i type="int" name="NOMEGAR">     0</i>
   <i type="int" name="NBANDSGW">    -1</i>
   <i type="int" name="NBANDSO">    -1</i>
   <i type="int" name="NBANDSV">    -1</i>
   <i type="int" name="NELM">   200</i>
   <i type="int" name="NELMHF">     1</i>
   <i type="int" name="DIM">     3</i>
   <i type="int" name="ANTIRES">     0</i>
   <i name="OMEGAMAX">    -30.00000000</i>
   <i name="OMEGAMIN">    -30.00000000</i>
   <i name="OMEGATL">   -200.00000000</i>
   <i type="int" name="OMEGAGRID">   140</i>
   <i name="CSHIFT">     -0.10000000</i>
   <i type="logical" name="SELFENERGY"> F  </i>
   <i type="logical" name="LSPECTRAL"> F  </i>
   <i type="logical" name="LSPECTRALGW"> F  </i>
   <i type="logical" name="LSINGLES"> F  </i>
   <i type="logical" name="LFERMIGW"> F  </i>
   <i type="logical" name="ODDONLYGW"> F  </i>
   <i type="logical" name="EVENONLYGW"> F  </i>
   <i type="int" name="NKREDLFX">     1</i>
   <i type="int" name="NKREDLFY">     1</i>
   <i type="int" name="NKREDLFZ">     1</i>
   <i type="int" name="MAXMEM">  2800</i>
   <i type="int" name="TELESCOPE">     0</i>
   <i type="int" name="TAUPAR">     1</i>
   <i type="int" name="OMEGAPAR">    -1</i>
   <i name="LAMBDA">      1.00000000</i>
  </separator>
  <separator name="External order field" >
   <i name="OFIELD_KAPPA">      0.00000000</i>
   <v name="OFIELD_K">      0.00000000      0.00000000      0.00000000</v>
   <i name="OFIELD_Q6_NEAR">      0.00000000</i>
   <i name="OFIELD_Q6_FAR">      0.00000000</i>
   <i name="OFIELD_A">      0.00000000</i>
  </separator>
  <separator name="solvation model" >
   <i type="logical" name="LSOL"> F  </i>
  </separator>
 </parameters>
 <atominfo>
  <atoms>      60 </atoms>
  <types>       4 </types>
  <array name="atoms" >
   <dimension dim="1">ion</dimension>
   <field type="string">element</field>
   <field type="int">atomtype</field>
   <set>
    <rc><c>N </c><c>   1</c></rc>
    <rc><c>N </c><c>   1</c></rc>
    <rc><c>N </c><c>   1</c></rc>
    <rc><c>N </c><c>   1</c></rc>
    <rc><c>N </c><c>   1</c></rc>
    <rc><c>N </c><c>   1</c></rc>
    <rc><c>H </c><c>   2</c></rc>
    <rc><c>H </c><c>   2</c></rc>
    <rc><c>H </c><c>   2</c></rc>
    <rc><c>H </c><c>   2</c></rc>
    <rc><c>H </c><c>   2</c></rc>
    <rc><c>H </c><c>   2</c></rc>
    <rc><c>H </c><c>   2</c></rc>
    <rc><c>H </c><c>   2</c></rc>
    <rc><c>H </c><c>   2</c></rc>
    <rc><c>H </c><c>   2</c></rc>
    <rc><c>H </c><c>   2</c></rc>
    <rc><c>H </c><c>   2</c></rc>
    <rc><c>C </c><c>   3</c></rc>
    <rc><c>C </c><c>   3</c></rc>
    <rc><c>C </c><c>   3</c></rc>
    <rc><c>C </c><c>   3</c></rc>
    <rc><c>C </c><c>   3</c></rc>
    <rc><c>C </c><c>   3</c></rc>
    <rc><c>C </c><c>   3</c></rc>
    <rc><c>C </c><c>   3</c></rc>
    <rc><c>C </c><c>   3</c></rc>
    <rc><c>C </c><c>   3</c></rc>
    <rc><c>C </c><c>   3</c></rc>
    <rc><c>C </c><c>   3</c></rc>
    <rc><c>C </c><c>   3</c></rc>
    <rc><c>C </c><c>   3</c></rc>
    <rc><c>C </c><c>   3</c></rc>
    <rc><c>C </c><c>   3</c></rc>
    <rc><c>C </c><c>   3</c></rc>
    <rc><c>C </c><c>   3</c></rc>
    <rc><c>C </c><c>   3</c></rc>
    <rc><c>C </c><c>   3</c></rc>
    <rc><c>C </c><c>   3</c></rc>
    <rc><c>C </c><c>   3</c></rc>
    <rc><c>C </c><c>   3</c></rc>
    <rc><c>C </c><c>   3</c></rc>
    <rc><c>C </c><c>   3</c></rc>
    <rc><c>C </c><c>   3</c></rc>
    <rc><c>C </c><c>   3</c></rc>
    <rc><c>C </c><c>   3</c></rc>
    <rc><c>C </c><c>   3</c></rc>
    <rc><c>C </c><c>   3</c></rc>
    <rc><c>O </c><c>   4</c></rc>
    <rc><c>O </c><c>   4</c></rc>
    <rc><c>O </c><c>   4</c></rc>
    <rc><c>O </c><c>   4</c></rc>
    <rc><c>O </c><c>   4</c></rc>
    <rc><c>O </c><c>   4</c></rc>
    <rc><c>O </c><c>   4</c></rc>
    <rc><c>O </c><c>   4</c></rc>
    <rc><c>O </c><c>   4</c></rc>
    <rc><c>O </c><c>   4</c></rc>
    <rc><c>O </c><c>   4</c></rc>
    <rc><c>O </c><c>   4</c></rc>
   </set>
  </array>
  <array name="atomtypes" >
   <dimension dim="1">type</dimension>
   <field type="int">atomspertype</field>
   <field type="string">element</field>
   <field>mass</field>
   <field>valence</field>
   <field type="string">pseudopotential</field>
   <set>
    <rc><c>   6</c><c>N </c><c>     14.00100000</c><c>      5.00000000</c><c>  PAW_PBE N 08Apr2002                   </c></rc>
    <rc><c>  12</c><c>H </c><c>      1.00000000</c><c>      1.00000000</c><c>  PAW_PBE H 15Jun2001                   </c></rc>
    <rc><c>  30</c><c>C </c><c>     12.01100000</c><c>      4.00000000</c><c>  PAW_PBE C 08Apr2002                   </c></rc>
    <rc><c>  12</c><c>O </c><c>     16.00000000</c><c>      6.00000000</c><c>  PAW_PBE O 08Apr2002                   </c></rc>
   </set>
  </array>
 </atominfo>
 <structure name="initialpos" >
  <crystal>
   <varray name="basis" >
    <v>      14.14122326      -0.05309099       0.00000000 </v>
    <v>      -7.10780252      13.01989542       0.00000000 </v>
    <v>       0.00000000       0.00000000      20.00000000 </v>
   </varray>
   <i name="volume">   3674.79775553 </i>
   <varray name="rec_basis" >
    <v>       0.07086047       0.03868405       0.00000000 </v>
    <v>       0.00028895       0.07696327       0.00000000 </v>
    <v>       0.00000000       0.00000000       0.05000000 </v>
   </varray>
  </crystal>
  <varray name="positions" >
   <v>       0.57208332       0.49876094       0.43931106 </v>
   <v>       0.93744619       0.54330418       0.46965988 </v>
   <v>       0.63225800       0.06038465       0.48204234 </v>
   <v>       0.07286441       0.50700072       0.54905169 </v>
   <v>       0.43951992       0.94066995       0.54598244 </v>
   <v>       0.38447121       0.44454879       0.50599405 </v>
   <v>       0.79121917       0.25021954       0.51828206 </v>
   <v>       0.74158183       0.51167163       0.48369062 </v>
   <v>       0.47081452       0.20532194       0.48819995 </v>
   <v>       0.26976398       0.79208398       0.50839931 </v>
   <v>       0.22735018       0.48573235       0.48778892 </v>
   <v>       0.54720353       0.74481882       0.49488536 </v>
   <v>       0.06002484       0.74364873       0.34014823 </v>
   <v>       0.67038563       0.84644373       0.37581270 </v>
   <v>       0.42717831       0.58830872       0.34950838 </v>
   <v>       0.08329057       0.43269332       0.62278434 </v>
   <v>       0.33926600       0.94098312       0.61077299 </v>
   <v>       0.28061623       0.34326914       0.57088371 </v>
   <v>       0.42057095       0.37662832       0.50051980 </v>
   <v>       0.33535042       0.26963326       0.52244624 </v>
   <v>       0.59673452       0.36288454       0.48509890 </v>
   <v>       0.55691127       0.25707817       0.49311041 </v>
   <v>       0.62694070       0.21719397       0.50532184 </v>
   <v>       0.73786643       0.28278683       0.50961770 </v>
   <v>       0.77890186       0.38947364       0.50349748 </v>
   <v>       0.70884708       0.42892489       0.48973687 </v>
   <v>       0.39188642       0.60875775       0.48722966 </v>
   <v>       0.46018020       0.71535241       0.49297140 </v>
   <v>       0.41647169       0.78179720       0.50061458 </v>
   <v>       0.30364212       0.74049366       0.50257623 </v>
   <v>       0.23508980       0.63429415       0.49843388 </v>
   <v>       0.27985500       0.56867932       0.49114658 </v>
   <v>       0.04354734       0.60665664       0.46827666 </v>
   <v>       0.11591489       0.58498460       0.50529347 </v>
   <v>       0.07917700       0.70154450       0.42581841 </v>
   <v>       0.58666675       0.95802600       0.48090021 </v>
   <v>       0.48303023       0.89469852       0.50888624 </v>
   <v>       0.65628526       0.91597442       0.45217285 </v>
   <v>       0.52560120       0.55794219       0.43615852 </v>
   <v>       0.43550768       0.53738936       0.47699193 </v>
   <v>       0.57142018       0.64477348       0.38586295 </v>
   <v>       0.89544699       0.46082751       0.51038388 </v>
   <v>       0.96589993       0.44858245       0.55541188 </v>
   <v>       0.93330771       0.37872041       0.61644284 </v>
   <v>       0.58158964       0.10521428       0.51335847 </v>
   <v>       0.48775008       0.04303760       0.55129885 </v>
   <v>       0.43862015       0.08177013       0.60412859 </v>
   <v>       0.52656905       0.40976543       0.47384643 </v>
   <v>       0.32641485       0.18951699       0.50008157 </v>
   <v>       0.13713997       0.78887756       0.44608013 </v>
   <v>       0.03753035       0.67821900       0.36348550 </v>
   <v>       0.72494273       0.91023058       0.48597040 </v>
   <v>       0.63157997       0.88470561       0.38841910 </v>
   <v>       0.66561146       0.71148272       0.38397905 </v>
   <v>       0.49951118       0.64551012       0.34116323 </v>
   <v>       0.84120620       0.32781185       0.63648651 </v>
   <v>       0.01911948       0.38173476       0.64805726 </v>
   <v>       0.47614932       0.17131739       0.62107349 </v>
   <v>       0.34986780       0.00519838       0.63272983 </v>
   <v>       0.26349730       0.27069315       0.56616866 </v>
  </varray>
 </structure>
 <calculation>
  <scstep>
   <time name="dav">   80.69   81.26</time>
   <time name="total">   80.78   81.36</time>
   <energy>
    <i name="alphaZ">     67.02246434 </i>
    <i name="ewald">  27188.15113728 </i>
    <i name="hartreedc"> -36734.82485027 </i>
    <i name="XCdc">    906.87213911 </i>
    <i name="pawpsdc">  21744.25700106 </i>
    <i name="pawaedc"> -21796.91528014 </i>
    <i name="eentropy">     -0.00000000 </i>
    <i name="bandstr">  -3152.95104199 </i>
    <i name="atom">  11339.77612059 </i>
    <i name="e_fr_energy">   -438.61231002 </i>
    <i name="e_wo_entrp">   -438.61231002 </i>
    <i name="e_0_energy">   -438.61231002 </i>
   </energy>
  </scstep>
  <scstep>
   <time name="dav">   89.83   90.46</time>
   <time name="total">   89.84   90.47</time>
   <energy>
    <i name="e_fr_energy">   -443.13442991 </i>
    <i name="e_wo_entrp">   -443.13442991 </i>
    <i name="e_0_energy">   -443.13442991 </i>
   </energy>
  </scstep>
  <scstep>
   <time name="dav">   94.82   95.48</time>
   <time name="total">   94.84   95.50</time>
   <energy>
    <i name="e_fr_energy">   -443.21817724 </i>
    <i name="e_wo_entrp">   -443.21817724 </i>
    <i name="e_0_energy">   -443.21817724 </i>
   </energy>
  </scstep>
  <scstep>
   <time name="dav">   90.99   91.62</time>
   <time name="total">   91.00   91.63</time>
   <energy>
    <i name="e_fr_energy">   -443.22069488 </i>
    <i name="e_wo_entrp">   -443.22069488 </i>
    <i name="e_0_energy">   -443.22069488 </i>
   </energy>
  </scstep>
  <scstep>
   <time name="dav">   93.93   94.59</time>
   <time name="total">   93.94   94.60</time>
   <energy>
    <i name="e_fr_energy">   -443.22081527 </i>
    <i name="e_wo_entrp">   -443.22081527 </i>
    <i name="e_0_energy">   -443.22081527 </i>
   </energy>
  </scstep>
  <scstep>
   <time name="dav">   79.75   80.30</time>
   <time name="total">   79.76   80.31</time>
   <energy>
    <i name="alphaZ">     67.02246434 </i>
    <i name="ewald">  27188.15113728 </i>
    <i name="hartreedc"> -36734.82485027 </i>
    <i name="XCdc">    906.87213911 </i>
    <i name="pawpsdc">  21744.25700106 </i>
    <i name="pawaedc"> -21796.91528014 </i>
    <i name="eentropy">     -0.00000000 </i>
    <i name="bandstr">  -3157.55955251 </i>
    <i name="atom">  11339.77612059 </i>
    <i name="e_fr_energy">   -443.22082054 </i>
    <i name="e_wo_entrp">   -443.22082054 </i>
    <i name="e_0_energy">   -443.22082054 </i>
   </energy>
  </scstep>
  <structure>
   <crystal>
    <varray name="basis" >
     <v>      14.14122326      -0.05309099       0.00000000 </v>
     <v>      -7.10780252      13.01989542       0.00000000 </v>
     <v>       0.00000000       0.00000000      20.00000000 </v>
    </varray>
    <i name="volume">   3674.79775553 </i>
    <varray name="rec_basis" >
     <v>       0.07086047       0.03868405       0.00000000 </v>
     <v>       0.00028895       0.07696327       0.00000000 </v>
     <v>       0.00000000       0.00000000       0.05000000 </v>
    </varray>
   </crystal>
   <varray name="positions" >
    <v>       0.57208332       0.49876094       0.43931106 </v>
    <v>       0.93744619       0.54330418       0.46965988 </v>
    <v>       0.63225800       0.06038465       0.48204234 </v>
    <v>       0.07286441       0.50700072       0.54905169 </v>
    <v>       0.43951992       0.94066995       0.54598244 </v>
    <v>       0.38447121       0.44454879       0.50599405 </v>
    <v>       0.79121917       0.25021954       0.51828206 </v>
    <v>       0.74158183       0.51167163       0.48369062 </v>
    <v>       0.47081452       0.20532194       0.48819995 </v>
    <v>       0.26976398       0.79208398       0.50839931 </v>
    <v>       0.22735018       0.48573235       0.48778892 </v>
    <v>       0.54720353       0.74481882       0.49488536 </v>
    <v>       0.06002484       0.74364873       0.34014823 </v>
    <v>       0.67038563       0.84644373       0.37581270 </v>
    <v>       0.42717831       0.58830872       0.34950838 </v>
    <v>       0.08329057       0.43269332       0.62278434 </v>
    <v>       0.33926600       0.94098312       0.61077299 </v>
    <v>       0.28061623       0.34326914       0.57088371 </v>
    <v>       0.42057095       0.37662832       0.50051980 </v>
    <v>       0.33535042       0.26963326       0.52244624 </v>
    <v>       0.59673452       0.36288454       0.48509890 </v>
    <v>       0.55691127       0.25707817       0.49311041 </v>
    <v>       0.62694070       0.21719397       0.50532184 </v>
    <v>       0.73786643       0.28278683       0.50961770 </v>
    <v>       0.77890186       0.38947364       0.50349748 </v>
    <v>       0.70884708       0.42892489       0.48973687 </v>
    <v>       0.39188642       0.60875775       0.48722966 </v>
    <v>       0.46018020       0.71535241       0.49297140 </v>
    <v>       0.41647169       0.78179720       0.50061458 </v>
    <v>       0.30364212       0.74049366       0.50257623 </v>
    <v>       0.23508980       0.63429415       0.49843388 </v>
    <v>       0.27985500       0.56867932       0.49114658 </v>
    <v>       0.04354734       0.60665664       0.46827666 </v>
    <v>       0.11591489       0.58498460       0.50529347 </v>
    <v>       0.07917700       0.70154450       0.42581841 </v>
    <v>       0.58666675       0.95802600       0.48090021 </v>
    <v>       0.48303023       0.89469852       0.50888624 </v>
    <v>       0.65628526       0.91597442       0.45217285 </v>
    <v>       0.52560120       0.55794219       0.43615852 </v>
    <v>       0.43550768       0.53738936       0.47699193 </v>
    <v>       0.57142018       0.64477348       0.38586295 </v>
    <v>       0.89544699       0.46082751       0.51038388 </v>
    <v>       0.96589993       0.44858245       0.55541188 </v>
    <v>       0.93330771       0.37872041       0.61644284 </v>
    <v>       0.58158964       0.10521428       0.51335847 </v>
    <v>       0.48775008       0.04303760       0.55129885 </v>
    <v>       0.43862015       0.08177013       0.60412859 </v>
    <v>       0.52656905       0.40976543       0.47384643 </v>
    <v>       0.32641485       0.18951699       0.50008157 </v>
    <v>       0.13713997       0.78887756       0.44608013 </v>
    <v>       0.03753035       0.67821900       0.36348550 </v>
    <v>       0.72494273       0.91023058       0.48597040 </v>
    <v>       0.63157997       0.88470561       0.38841910 </v>
    <v>       0.66561146       0.71148272       0.38397905 </v>
    <v>       0.49951118       0.64551012       0.34116323 </v>
    <v>       0.84120620       0.32781185       0.63648651 </v>
    <v>       0.01911948       0.38173476       0.64805726 </v>
    <v>       0.47614932       0.17131739       0.62107349 </v>
    <v>       0.34986780       0.00519838       0.63272983 </v>
    <v>       0.26349730       0.27069315       0.56616866 </v>
   </varray>
  </structure>
  <varray name="forces" >
   <v>       0.00206654       0.00292044      -0.00350835 </v>
   <v>       0.00464223       0.00111348      -0.00373153 </v>
   <v>      -0.00063412       0.00393393      -0.00104637 </v>
   <v>       0.00161854       0.00150913      -0.00304258 </v>
   <v>      -0.00067805      -0.00569615       0.00055069 </v>
   <v>      -0.00559002       0.00038675      -0.00373029 </v>
   <v>       0.00304262       0.00032929       0.00280648 </v>
   <v>      -0.00008493       0.00009749       0.00010126 </v>
   <v>      -0.00054534      -0.00501737      -0.00292526 </v>
   <v>      -0.00189994      -0.00105505       0.00120441 </v>
   <v>       0.00059471      -0.00532528      -0.00023081 </v>
   <v>       0.00365028       0.00159453       0.00138850 </v>
   <v>      -0.00009068       0.00381893      -0.00185481 </v>
   <v>      -0.00056346      -0.00345251      -0.00208539 </v>
   <v>       0.00216942       0.00459537       0.00060931 </v>
   <v>       0.00222266       0.00067646       0.00231392 </v>
   <v>       0.00184258      -0.00436487      -0.00143026 </v>
   <v>      -0.00359852       0.00228446      -0.00321731 </v>
   <v>       0.00384378       0.00063927       0.00098457 </v>
   <v>       0.00330845      -0.00072759      -0.00203190 </v>
   <v>      -0.00331794       0.00274484      -0.00045545 </v>
   <v>      -0.00280114      -0.00033582       0.00004572 </v>
   <v>       0.00049788      -0.00189761      -0.00324312 </v>
   <v>      -0.00380727      -0.00484035      -0.00157988 </v>
   <v>      -0.00746548       0.00825908      -0.00035838 </v>
   <v>       0.00239959      -0.00327674      -0.00149087 </v>
   <v>      -0.00017091      -0.00739858       0.00073323 </v>
   <v>      -0.00073080       0.00343662       0.00206928 </v>
   <v>      -0.00092568       0.00355904       0.00123841 </v>
   <v>       0.00212354       0.00242985       0.00000145 </v>
   <v>       0.00082208      -0.00665595      -0.00109889 </v>
   <v>       0.00146561       0.00405523       0.00087057 </v>
   <v>      -0.00458928      -0.00179281       0.00388011 </v>
   <v>       0.00067295       0.00740170       0.00283521 </v>
   <v>       0.00005763      -0.00621826       0.00260560 </v>
   <v>      -0.00105666      -0.00277382       0.00240852 </v>
   <v>       0.00225016       0.00367078      -0.00167043 </v>
   <v>      -0.00393070      -0.00196713      -0.00376321 </v>
   <v>      -0.00264004      -0.00056454       0.00068143 </v>
   <v>      -0.00213230      -0.00050854       0.00390698 </v>
   <v>      -0.00416855      -0.00451554       0.00259594 </v>
   <v>      -0.00174421      -0.00049797      -0.00363964 </v>
   <v>       0.00225891       0.00052591       0.00075933 </v>
   <v>       0.00686990       0.00281865      -0.00110658 </v>
   <v>       0.00092481       0.00131518       0.00380136 </v>
   <v>       0.00146426       0.00419216      -0.00004391 </v>
   <v>       0.00041799       0.00331107      -0.00055621 </v>
   <v>       0.00043329       0.00126202      -0.00230323 </v>
   <v>       0.00329061       0.00379997       0.00115257 </v>
   <v>       0.00350781       0.00347262      -0.00246823 </v>
   <v>       0.00219713      -0.00366182      -0.00128499 </v>
   <v>       0.00378035      -0.00220025       0.00479531 </v>
   <v>       0.00018649      -0.00105034       0.00086923 </v>
   <v>       0.00553481       0.00622131       0.00553803 </v>
   <v>      -0.00155537      -0.00094952      -0.00081835 </v>
   <v>      -0.00877691      -0.00120321       0.00465900 </v>
   <v>      -0.00499689      -0.00055533       0.00325382 </v>
   <v>      -0.00558930       0.00048775      -0.00679193 </v>
   <v>       0.00348351       0.00142349       0.00116588 </v>
   <v>       0.00044337      -0.00978382       0.00168203 </v>
  </varray>
  <varray name="stress" >
   <v>      -0.04597659       0.00529597      -0.00218134 </v>
   <v>       0.00529596       0.04483710      -0.01700407 </v>
   <v>      -0.00218134      -0.01700407      -0.49745332 </v>
  </varray>
  <energy>
   <i name="e_fr_energy">   -444.86128743 </i>
   <i name="e_wo_entrp">   -444.86128743 </i>
   <i name="e_0_energy">     -0.00000000 </i>
  </energy>
  <time name="totalsc">  590.32  594.49</time>
  <eigenvalues>
   <array>
    <dimension dim="1">band</dimension>
    <dimension dim="2">kpoint</dimension>
    <dimension dim="3">spin</dimension>
    <field>eigene</field>
    <field>occ</field>
    <set>
     <set comment="spin 1">
      <set comment="kpoint 1">
       <r>  -27.8713    1.0000 </r>
       <r>  -27.6943    1.0000 </r>
       <r>  -27.2706    1.0000 </r>
       <r>  -27.2272    1.0000 </r>
       <r>  -26.9932    1.0000 </r>
       <r>  -26.7534    1.0000 </r>
       <r>  -25.7518    1.0000 </r>
       <r>  -25.4156    1.0000 </r>
       <r>  -25.1474    1.0000 </r>
       <r>  -25.0443    1.0000 </r>
       <r>  -25.0075    1.0000 </r>
       <r>  -24.9606    1.0000 </r>
       <r>  -24.8446    1.0000 </r>
       <r>  -24.6940    1.0000 </r>
       <r>  -24.5960    1.0000 </r>
       <r>  -23.1324    1.0000 </r>
       <r>  -23.0166    1.0000 </r>
       <r>  -22.7826    1.0000 </r>
       <r>  -21.8356    1.0000 </r>
       <r>  -21.3926    1.0000 </r>
       <r>  -20.6562    1.0000 </r>
       <r>  -20.4787    1.0000 </r>
       <r>  -19.5784    1.0000 </r>
       <r>  -19.3608    1.0000 </r>
       <r>  -19.3096    1.0000 </r>
       <r>  -18.1582    1.0000 </r>
       <r>  -18.0542    1.0000 </r>
       <r>  -17.7037    1.0000 </r>
       <r>  -17.6171    1.0000 </r>
       <r>  -17.3300    1.0000 </r>
       <r>  -16.8213    1.0000 </r>
       <r>  -16.5075    1.0000 </r>
       <r>  -16.2956    1.0000 </r>
       <r>  -15.6876    1.0000 </r>
       <r>  -15.6173    1.0000 </r>
       <r>  -15.3865    1.0000 </r>
       <r>  -15.3549    1.0000 </r>
       <r>  -15.0993    1.0000 </r>
       <r>  -14.7749    1.0000 </r>
       <r>  -14.6723    1.0000 </r>
       <r>  -14.4500    1.0000 </r>
       <r>  -14.3453    1.0000 </r>
       <r>  -14.1151    1.0000 </r>
       <r>  -13.9536    1.0000 </r>
       <r>  -13.8112    1.0000 </r>
       <r>  -13.6273    1.0000 </r>
       <r>  -13.2833    1.0000 </r>
       <r>  -13.2041    1.0000 </r>
       <r>  -13.0600    1.0000 </r>
       <r>  -13.0230    1.0000 </r>
       <r>  -12.9454    1.0000 </r>
       <r>  -12.5925    1.0000 </r>
       <r>  -12.4708    1.0000 </r>
       <r>  -12.0709    1.0000 </r>
       <r>  -11.7809    1.0000 </r>
       <r>  -11.6374    1.0000 </r>
       <r>  -11.5911    1.0000 </r>
       <r>  -11.3861    1.0000 </r>
       <r>  -11.3222    1.0000 </r>
       <r>  -11.2268    1.0000 </r>
       <r>  -11.1622    1.0000 </r>
       <r>  -11.1016    1.0000 </r>
       <r>  -10.9358    1.0000 </r>
       <r>  -10.8638    1.0000 </r>
       <r>  -10.7341    1.0000 </r>
       <r>  -10.6876    1.0000 </r>
       <r>  -10.6392    1.0000 </r>
       <r>  -10.5264    1.0000 </r>
       <r>  -10.4205    1.0000 </r>
       <r>  -10.2690    1.0000 </r>
       <r>  -10.2476    1.0000 </r>
       <r>  -10.1584    1.0000 </r>
       <r>  -10.0961    1.0000 </r>
       <r>   -9.9830    1.0000 </r>
       <r>   -9.8959    1.0000 </r>
       <r>   -9.8432    1.0000 </r>
       <r>   -9.7354    1.0000 </r>
       <r>   -9.6217    1.0000 </r>
       <r>   -9.4752    1.0000 </r>
       <r>   -9.3839    1.0000 </r>
       <r>   -9.1334    1.0000 </r>
       <r>   -9.0041    1.0000 </r>
       <r>   -8.9910    1.0000 </r>
       <r>   -8.9073    1.0000 </r>
       <r>   -8.8825    1.0000 </r>
       <r>   -8.7938    1.0000 </r>
       <r>   -8.5776    1.0000 </r>
       <r>   -8.5203    1.0000 </r>
       <r>   -8.5133    1.0000 </r>
       <r>   -8.4119    1.0000 </r>
       <r>   -8.2748    1.0000 </r>
       <r>   -8.1469    1.0000 </r>
       <r>   -7.9199    1.0000 </r>
       <r>   -7.7520    1.0000 </r>
       <r>   -7.6008    1.0000 </r>
       <r>   -7.5348    1.0000 </r>
       <r>   -7.3986    1.0000 </r>
       <r>   -7.3428    1.0000 </r>
       <r>   -7.2896    1.0000 </r>
       <r>   -7.1789    1.0000 </r>
       <r>   -7.1179    1.0000 </r>
       <r>   -7.0233    1.0000 </r>
       <r>   -6.9308    1.0000 </r>
       <r>   -6.8052    1.0000 </r>
       <r>   -6.7663    1.0000 </r>
       <r>   -6.6786    1.0000 </r>
       <r>   -6.5968    1.0000 </r>
       <r>   -6.5004    1.0000 </r>
       <r>   -6.3645    1.0000 </r>
       <r>   -6.2831    1.0000 </r>
       <r>   -6.1085    1.0000 </r>
       <r>   -5.9230    1.0000 </r>
       <r>   -5.8361    1.0000 </r>
       <r>   -5.7681    1.0000 </r>
       <r>   -5.7164    1.0000 </r>
       <r>   -5.4008    1.0000 </r>
       <r>   -5.2111    1.0000 </r>
       <r>   -3.0152    0.0000 </r>
       <r>   -2.9714    0.0000 </r>
       <r>   -2.8516    0.0000 </r>
       <r>   -2.7461    0.0000 </r>
       <r>   -2.5578    0.0000 </r>
       <r>   -2.3601    0.0000 </r>
       <r>   -1.6336    0.0000 </r>
       <r>   -1.5209    0.0000 </r>
       <r>   -1.2271    0.0000 </r>
       <r>   -1.1525    0.0000 </r>
       <r>   -0.8255    0.0000 </r>
       <r>   -0.4797    0.0000 </r>
       <r>   -0.3420    0.0000 </r>
       <r>   -0.2916    0.0000 </r>
       <r>    0.0003    0.0000 </r>
       <r>    0.0842    0.0000 </r>
       <r>    0.1615    0.0000 </r>
       <r>    0.3545    0.0000 </r>
       <r>    0.4615    0.0000 </r>
       <r>    0.6793    0.0000 </r>
       <r>    0.7671    0.0000 </r>
       <r>    0.7938    0.0000 </r>
       <r>    0.9755    0.0000 </r>
       <r>    1.0530    0.0000 </r>
       <r>    1.1462    0.0000 </r>
       <r>    1.2219    0.0000 </r>
       <r>    1.3123    0.0000 </r>
       <r>    1.3988    0.0000 </r>
       <r>    1.4822    0.0000 </r>
       <r>    1.5743    0.0000 </r>
       <r>    1.6345    0.0000 </r>
       <r>    1.7299    0.0000 </r>
       <r>    1.8388    0.0000 </r>
       <r>    1.9189    0.0000 </r>
       <r>    1.9784    0.0000 </r>
       <r>    2.0434    0.0000 </r>
       <r>    2.0709    0.0000 </r>
       <r>    2.1078    0.0000 </r>
       <r>    2.1244    0.0000 </r>
       <r>    2.1726    0.0000 </r>
       <r>    2.2062    0.0000 </r>
       <r>    2.2516    0.0000 </r>
       <r>    2.3290    0.0000 </r>
      </set>
      <set comment="kpoint 2">
       <r>  -27.8713    1.0000 </r>
       <r>  -27.6943    1.0000 </r>
       <r>  -27.2706    1.0000 </r>
       <r>  -27.2272    1.0000 </r>
       <r>  -26.9932    1.0000 </r>
       <r>  -26.7534    1.0000 </r>
       <r>  -25.7518    1.0000 </r>
       <r>  -25.4156    1.0000 </r>
       <r>  -25.1474    1.0000 </r>
       <r>  -25.0443    1.0000 </r>
       <r>  -25.0075    1.0000 </r>
       <r>  -24.9606    1.0000 </r>
       <r>  -24.8446    1.0000 </r>
       <r>  -24.6940    1.0000 </r>
       <r>  -24.5960    1.0000 </r>
       <r>  -23.1324    1.0000 </r>
       <r>  -23.0167    1.0000 </r>
       <r>  -22.7826    1.0000 </r>
       <r>  -21.8356    1.0000 </r>
       <r>  -21.3929    1.0000 </r>
       <r>  -20.6553    1.0000 </r>
       <r>  -20.4787    1.0000 </r>
       <r>  -19.5852    1.0000 </r>
       <r>  -19.3553    1.0000 </r>
       <r>  -19.3079    1.0000 </r>
       <r>  -18.1594    1.0000 </r>
       <r>  -18.0552    1.0000 </r>
       <r>  -17.7029    1.0000 </r>
       <r>  -17.6169    1.0000 </r>
       <r>  -17.3300    1.0000 </r>
       <r>  -16.8207    1.0000 </r>
       <r>  -16.5076    1.0000 </r>
       <r>  -16.2967    1.0000 </r>
       <r>  -15.6879    1.0000 </r>
       <r>  -15.6166    1.0000 </r>
       <r>  -15.3866    1.0000 </r>
       <r>  -15.3544    1.0000 </r>
       <r>  -15.0986    1.0000 </r>
       <r>  -14.7750    1.0000 </r>
       <r>  -14.6725    1.0000 </r>
       <r>  -14.4500    1.0000 </r>
       <r>  -14.3452    1.0000 </r>
       <r>  -14.1155    1.0000 </r>
       <r>  -13.9535    1.0000 </r>
       <r>  -13.8113    1.0000 </r>
       <r>  -13.6268    1.0000 </r>
       <r>  -13.2850    1.0000 </r>
       <r>  -13.2072    1.0000 </r>
       <r>  -13.0581    1.0000 </r>
       <r>  -13.0220    1.0000 </r>
       <r>  -12.9440    1.0000 </r>
       <r>  -12.5922    1.0000 </r>
       <r>  -12.4706    1.0000 </r>
       <r>  -12.0711    1.0000 </r>
       <r>  -11.7807    1.0000 </r>
       <r>  -11.6374    1.0000 </r>
       <r>  -11.5913    1.0000 </r>
       <r>  -11.3864    1.0000 </r>
       <r>  -11.3220    1.0000 </r>
       <r>  -11.2270    1.0000 </r>
       <r>  -11.1618    1.0000 </r>
       <r>  -11.1015    1.0000 </r>
       <r>  -10.9362    1.0000 </r>
       <r>  -10.8633    1.0000 </r>
       <r>  -10.7342    1.0000 </r>
       <r>  -10.6875    1.0000 </r>
       <r>  -10.6390    1.0000 </r>
       <r>  -10.5265    1.0000 </r>
       <r>  -10.4208    1.0000 </r>
       <r>  -10.2710    1.0000 </r>
       <r>  -10.2456    1.0000 </r>
       <r>  -10.1583    1.0000 </r>
       <r>  -10.0962    1.0000 </r>
       <r>   -9.9837    1.0000 </r>
       <r>   -9.8956    1.0000 </r>
       <r>   -9.8434    1.0000 </r>
       <r>   -9.7349    1.0000 </r>
       <r>   -9.6216    1.0000 </r>
       <r>   -9.4750    1.0000 </r>
       <r>   -9.3840    1.0000 </r>
       <r>   -9.1336    1.0000 </r>
       <r>   -9.0046    1.0000 </r>
       <r>   -8.9909    1.0000 </r>
       <r>   -8.9073    1.0000 </r>
       <r>   -8.8829    1.0000 </r>
       <r>   -8.7936    1.0000 </r>
       <r>   -8.5777    1.0000 </r>
       <r>   -8.5218    1.0000 </r>
       <r>   -8.5112    1.0000 </r>
       <r>   -8.4117    1.0000 </r>
       <r>   -8.2748    1.0000 </r>
       <r>   -8.1470    1.0000 </r>
       <r>   -7.9199    1.0000 </r>
       <r>   -7.7517    1.0000 </r>
       <r>   -7.6008    1.0000 </r>
       <r>   -7.5349    1.0000 </r>
       <r>   -7.3986    1.0000 </r>
       <r>   -7.3427    1.0000 </r>
       <r>   -7.2896    1.0000 </r>
       <r>   -7.1790    1.0000 </r>
       <r>   -7.1178    1.0000 </r>
       <r>   -7.0233    1.0000 </r>
       <r>   -6.9312    1.0000 </r>
       <r>   -6.8055    1.0000 </r>
       <r>   -6.7662    1.0000 </r>
       <r>   -6.6797    1.0000 </r>
       <r>   -6.5955    1.0000 </r>
       <r>   -6.5004    1.0000 </r>
       <r>   -6.3638    1.0000 </r>
       <r>   -6.2829    1.0000 </r>
       <r>   -6.1085    1.0000 </r>
       <r>   -5.9231    1.0000 </r>
       <r>   -5.8360    1.0000 </r>
       <r>   -5.7680    1.0000 </r>
       <r>   -5.7165    1.0000 </r>
       <r>   -5.4011    1.0000 </r>
       <r>   -5.2111    1.0000 </r>
       <r>   -3.0153    0.0000 </r>
       <r>   -2.9715    0.0000 </r>
       <r>   -2.8514    0.0000 </r>
       <r>   -2.7462    0.0000 </r>
       <r>   -2.5579    0.0000 </r>
       <r>   -2.3604    0.0000 </r>
       <r>   -1.6330    0.0000 </r>
       <r>   -1.5205    0.0000 </r>
       <r>   -1.2271    0.0000 </r>
       <r>   -1.1525    0.0000 </r>
       <r>   -0.8255    0.0000 </r>
       <r>   -0.4795    0.0000 </r>
       <r>   -0.3423    0.0000 </r>
       <r>   -0.2915    0.0000 </r>
       <r>   -0.0001    0.0000 </r>
       <r>    0.0839    0.0000 </r>
       <r>    0.1615    0.0000 </r>
       <r>    0.3542    0.0000 </r>
       <r>    0.4614    0.0000 </r>
       <r>    0.6786    0.0000 </r>
       <r>    0.7644    0.0000 </r>
       <r>    0.7962    0.0000 </r>
       <r>    0.9743    0.0000 </r>
       <r>    1.0545    0.0000 </r>
       <r>    1.1474    0.0000 </r>
       <r>    1.2233    0.0000 </r>
       <r>    1.3130    0.0000 </r>
       <r>    1.3979    0.0000 </r>
       <r>    1.4830    0.0000 </r>
       <r>    1.5753    0.0000 </r>
       <r>    1.6356    0.0000 </r>
       <r>    1.7309    0.0000 </r>
       <r>    1.8378    0.0000 </r>
       <r>    1.9173    0.0000 </r>
       <r>    1.9766    0.0000 </r>
       <r>    2.0400    0.0000 </r>
       <r>    2.0726    0.0000 </r>
       <r>    2.1079    0.0000 </r>
       <r>    2.1200    0.0000 </r>
       <r>    2.1764    0.0000 </r>
       <r>    2.2117    0.0000 </r>
       <r>    2.2655    0.0000 </r>
       <r>    2.3350    0.0000 </r>
      </set>
      <set comment="kpoint 3">
       <r>  -27.8713    1.0000 </r>
       <r>  -27.6943    1.0000 </r>
       <r>  -27.2706    1.0000 </r>
       <r>  -27.2272    1.0000 </r>
       <r>  -26.9932    1.0000 </r>
       <r>  -26.7534    1.0000 </r>
       <r>  -25.7518    1.0000 </r>
       <r>  -25.4156    1.0000 </r>
       <r>  -25.1474    1.0000 </r>
       <r>  -25.0443    1.0000 </r>
       <r>  -25.0075    1.0000 </r>
       <r>  -24.9606    1.0000 </r>
       <r>  -24.8446    1.0000 </r>
       <r>  -24.6940    1.0000 </r>
       <r>  -24.5960    1.0000 </r>
       <r>  -23.1322    1.0000 </r>
       <r>  -23.0168    1.0000 </r>
       <r>  -22.7826    1.0000 </r>
       <r>  -21.8355    1.0000 </r>
       <r>  -21.3935    1.0000 </r>
       <r>  -20.6527    1.0000 </r>
       <r>  -20.4786    1.0000 </r>
       <r>  -19.6034    1.0000 </r>
       <r>  -19.3429    1.0000 </r>
       <r>  -19.3009    1.0000 </r>
       <r>  -18.1628    1.0000 </r>
       <r>  -18.0581    1.0000 </r>
       <r>  -17.7008    1.0000 </r>
       <r>  -17.6163    1.0000 </r>
       <r>  -17.3298    1.0000 </r>
       <r>  -16.8190    1.0000 </r>
       <r>  -16.5078    1.0000 </r>
       <r>  -16.3000    1.0000 </r>
       <r>  -15.6889    1.0000 </r>
       <r>  -15.6147    1.0000 </r>
       <r>  -15.3867    1.0000 </r>
       <r>  -15.3530    1.0000 </r>
       <r>  -15.0965    1.0000 </r>
       <r>  -14.7753    1.0000 </r>
       <r>  -14.6732    1.0000 </r>
       <r>  -14.4499    1.0000 </r>
       <r>  -14.3452    1.0000 </r>
       <r>  -14.1168    1.0000 </r>
       <r>  -13.9531    1.0000 </r>
       <r>  -13.8117    1.0000 </r>
       <r>  -13.6254    1.0000 </r>
       <r>  -13.2902    1.0000 </r>
       <r>  -13.2153    1.0000 </r>
       <r>  -13.0538    1.0000 </r>
       <r>  -13.0190    1.0000 </r>
       <r>  -12.9399    1.0000 </r>
       <r>  -12.5914    1.0000 </r>
       <r>  -12.4701    1.0000 </r>
       <r>  -12.0717    1.0000 </r>
       <r>  -11.7802    1.0000 </r>
       <r>  -11.6375    1.0000 </r>
       <r>  -11.5921    1.0000 </r>
       <r>  -11.3873    1.0000 </r>
       <r>  -11.3214    1.0000 </r>
       <r>  -11.2275    1.0000 </r>
       <r>  -11.1605    1.0000 </r>
       <r>  -11.1013    1.0000 </r>
       <r>  -10.9375    1.0000 </r>
       <r>  -10.8616    1.0000 </r>
       <r>  -10.7346    1.0000 </r>
       <r>  -10.6872    1.0000 </r>
       <r>  -10.6385    1.0000 </r>
       <r>  -10.5271    1.0000 </r>
       <r>  -10.4218    1.0000 </r>
       <r>  -10.2756    1.0000 </r>
       <r>  -10.2410    1.0000 </r>
       <r>  -10.1579    1.0000 </r>
       <r>  -10.0962    1.0000 </r>
       <r>   -9.9856    1.0000 </r>
       <r>   -9.8949    1.0000 </r>
       <r>   -9.8440    1.0000 </r>
       <r>   -9.7332    1.0000 </r>
       <r>   -9.6213    1.0000 </r>
       <r>   -9.4745    1.0000 </r>
       <r>   -9.3841    1.0000 </r>
       <r>   -9.1343    1.0000 </r>
       <r>   -9.0061    1.0000 </r>
       <r>   -8.9907    1.0000 </r>
       <r>   -8.9072    1.0000 </r>
       <r>   -8.8841    1.0000 </r>
       <r>   -8.7930    1.0000 </r>
       <r>   -8.5778    1.0000 </r>
       <r>   -8.5243    1.0000 </r>
       <r>   -8.5066    1.0000 </r>
       <r>   -8.4112    1.0000 </r>
       <r>   -8.2749    1.0000 </r>
       <r>   -8.1476    1.0000 </r>
       <r>   -7.9198    1.0000 </r>
       <r>   -7.7511    1.0000 </r>
       <r>   -7.6009    1.0000 </r>
       <r>   -7.5355    1.0000 </r>
       <r>   -7.3986    1.0000 </r>
       <r>   -7.3425    1.0000 </r>
       <r>   -7.2895    1.0000 </r>
       <r>   -7.1790    1.0000 </r>
       <r>   -7.1177    1.0000 </r>
       <r>   -7.0233    1.0000 </r>
       <r>   -6.9326    1.0000 </r>
       <r>   -6.8066    1.0000 </r>
       <r>   -6.7662    1.0000 </r>
       <r>   -6.6829    1.0000 </r>
       <r>   -6.5920    1.0000 </r>
       <r>   -6.5006    1.0000 </r>
       <r>   -6.3615    1.0000 </r>
       <r>   -6.2825    1.0000 </r>
       <r>   -6.1086    1.0000 </r>
       <r>   -5.9234    1.0000 </r>
       <r>   -5.8356    1.0000 </r>
       <r>   -5.7680    1.0000 </r>
       <r>   -5.7168    1.0000 </r>
       <r>   -5.4020    1.0000 </r>
       <r>   -5.2112    1.0000 </r>
       <r>   -3.0155    0.0000 </r>
       <r>   -2.9718    0.0000 </r>
       <r>   -2.8508    0.0000 </r>
       <r>   -2.7464    0.0000 </r>
       <r>   -2.5582    0.0000 </r>
       <r>   -2.3615    0.0000 </r>
       <r>   -1.6313    0.0000 </r>
       <r>   -1.5193    0.0000 </r>
       <r>   -1.2269    0.0000 </r>
       <r>   -1.1527    0.0000 </r>
       <r>   -0.8256    0.0000 </r>
       <r>   -0.4790    0.0000 </r>
       <r>   -0.3432    0.0000 </r>
       <r>   -0.2912    0.0000 </r>
       <r>   -0.0013    0.0000 </r>
       <r>    0.0828    0.0000 </r>
       <r>    0.1614    0.0000 </r>
       <r>    0.3532    0.0000 </r>
       <r>    0.4609    0.0000 </r>
       <r>    0.6765    0.0000 </r>
       <r>    0.7580    0.0000 </r>
       <r>    0.8017    0.0000 </r>
       <r>    0.9711    0.0000 </r>
       <r>    1.0588    0.0000 </r>
       <r>    1.1507    0.0000 </r>
       <r>    1.2276    0.0000 </r>
       <r>    1.3149    0.0000 </r>
       <r>    1.3957    0.0000 </r>
       <r>    1.4851    0.0000 </r>
       <r>    1.5782    0.0000 </r>
       <r>    1.6390    0.0000 </r>
       <r>    1.7336    0.0000 </r>
       <r>    1.8345    0.0000 </r>
       <r>    1.9121    0.0000 </r>
       <r>    1.9714    0.0000 </r>
       <r>    2.0317    0.0000 </r>
       <r>    2.0742    0.0000 </r>
       <r>    2.0960    0.0000 </r>
       <r>    2.1225    0.0000 </r>
       <r>    2.1768    0.0000 </r>
       <r>    2.2174    0.0000 </r>
       <r>    2.2903    0.0000 </r>
       <r>    2.3502    0.0000 </r>
      </set>
      <set comment="kpoint 4">
       <r>  -27.8713    1.0000 </r>
       <r>  -27.6943    1.0000 </r>
       <r>  -27.2706    1.0000 </r>
       <r>  -27.2272    1.0000 </r>
       <r>  -26.9932    1.0000 </r>
       <r>  -26.7534    1.0000 </r>
       <r>  -25.7518    1.0000 </r>
       <r>  -25.4156    1.0000 </r>
       <r>  -25.1474    1.0000 </r>
       <r>  -25.0443    1.0000 </r>
       <r>  -25.0075    1.0000 </r>
       <r>  -24.9606    1.0000 </r>
       <r>  -24.8446    1.0000 </r>
       <r>  -24.6940    1.0000 </r>
       <r>  -24.5960    1.0000 </r>
       <r>  -23.1320    1.0000 </r>
       <r>  -23.0170    1.0000 </r>
       <r>  -22.7827    1.0000 </r>
       <r>  -21.8354    1.0000 </r>
       <r>  -21.3946    1.0000 </r>
       <r>  -20.6484    1.0000 </r>
       <r>  -20.4785    1.0000 </r>
       <r>  -19.6291    1.0000 </r>
       <r>  -19.3324    1.0000 </r>
       <r>  -19.2838    1.0000 </r>
       <r>  -18.1688    1.0000 </r>
       <r>  -18.0626    1.0000 </r>
       <r>  -17.6974    1.0000 </r>
       <r>  -17.6152    1.0000 </r>
       <r>  -17.3295    1.0000 </r>
       <r>  -16.8161    1.0000 </r>
       <r>  -16.5081    1.0000 </r>
       <r>  -16.3054    1.0000 </r>
       <r>  -15.6904    1.0000 </r>
       <r>  -15.6118    1.0000 </r>
       <r>  -15.3869    1.0000 </r>
       <r>  -15.3507    1.0000 </r>
       <r>  -15.0929    1.0000 </r>
       <r>  -14.7758    1.0000 </r>
       <r>  -14.6744    1.0000 </r>
       <r>  -14.4497    1.0000 </r>
       <r>  -14.3452    1.0000 </r>
       <r>  -14.1188    1.0000 </r>
       <r>  -13.9526    1.0000 </r>
       <r>  -13.8123    1.0000 </r>
       <r>  -13.6231    1.0000 </r>
       <r>  -13.2991    1.0000 </r>
       <r>  -13.2261    1.0000 </r>
       <r>  -13.0496    1.0000 </r>
       <r>  -13.0139    1.0000 </r>
       <r>  -12.9326    1.0000 </r>
       <r>  -12.5901    1.0000 </r>
       <r>  -12.4693    1.0000 </r>
       <r>  -12.0726    1.0000 </r>
       <r>  -11.7793    1.0000 </r>
       <r>  -11.6378    1.0000 </r>
       <r>  -11.5933    1.0000 </r>
       <r>  -11.3887    1.0000 </r>
       <r>  -11.3206    1.0000 </r>
       <r>  -11.2283    1.0000 </r>
       <r>  -11.1586    1.0000 </r>
       <r>  -11.1010    1.0000 </r>
       <r>  -10.9395    1.0000 </r>
       <r>  -10.8590    1.0000 </r>
       <r>  -10.7352    1.0000 </r>
       <r>  -10.6868    1.0000 </r>
       <r>  -10.6376    1.0000 </r>
       <r>  -10.5281    1.0000 </r>
       <r>  -10.4235    1.0000 </r>
       <r>  -10.2813    1.0000 </r>
       <r>  -10.2354    1.0000 </r>
       <r>  -10.1573    1.0000 </r>
       <r>  -10.0963    1.0000 </r>
       <r>   -9.9886    1.0000 </r>
       <r>   -9.8937    1.0000 </r>
       <r>   -9.8449    1.0000 </r>
       <r>   -9.7306    1.0000 </r>
       <r>   -9.6208    1.0000 </r>
       <r>   -9.4737    1.0000 </r>
       <r>   -9.3844    1.0000 </r>
       <r>   -9.1354    1.0000 </r>
       <r>   -9.0084    1.0000 </r>
       <r>   -8.9906    1.0000 </r>
       <r>   -8.9071    1.0000 </r>
       <r>   -8.8858    1.0000 </r>
       <r>   -8.7921    1.0000 </r>
       <r>   -8.5782    1.0000 </r>
       <r>   -8.5266    1.0000 </r>
       <r>   -8.5009    1.0000 </r>
       <r>   -8.4104    1.0000 </r>
       <r>   -8.2751    1.0000 </r>
       <r>   -8.1484    1.0000 </r>
       <r>   -7.9197    1.0000 </r>
       <r>   -7.7499    1.0000 </r>
       <r>   -7.6010    1.0000 </r>
       <r>   -7.5363    1.0000 </r>
       <r>   -7.3986    1.0000 </r>
       <r>   -7.3420    1.0000 </r>
       <r>   -7.2893    1.0000 </r>
       <r>   -7.1791    1.0000 </r>
       <r>   -7.1174    1.0000 </r>
       <r>   -7.0232    1.0000 </r>
       <r>   -6.9349    1.0000 </r>
       <r>   -6.8084    1.0000 </r>
       <r>   -6.7660    1.0000 </r>
       <r>   -6.6874    1.0000 </r>
       <r>   -6.5871    1.0000 </r>
       <r>   -6.5009    1.0000 </r>
       <r>   -6.3579    1.0000 </r>
       <r>   -6.2818    1.0000 </r>
       <r>   -6.1087    1.0000 </r>
       <r>   -5.9240    1.0000 </r>
       <r>   -5.8349    1.0000 </r>
       <r>   -5.7678    1.0000 </r>
       <r>   -5.7173    1.0000 </r>
       <r>   -5.4034    1.0000 </r>
       <r>   -5.2113    1.0000 </r>
       <r>   -3.0158    0.0000 </r>
       <r>   -2.9722    0.0000 </r>
       <r>   -2.8498    0.0000 </r>
       <r>   -2.7467    0.0000 </r>
       <r>   -2.5587    0.0000 </r>
       <r>   -2.3631    0.0000 </r>
       <r>   -1.6286    0.0000 </r>
       <r>   -1.5174    0.0000 </r>
       <r>   -1.2266    0.0000 </r>
       <r>   -1.1531    0.0000 </r>
       <r>   -0.8256    0.0000 </r>
       <r>   -0.4781    0.0000 </r>
       <r>   -0.3446    0.0000 </r>
       <r>   -0.2908    0.0000 </r>
       <r>   -0.0033    0.0000 </r>
       <r>    0.0811    0.0000 </r>
       <r>    0.1613    0.0000 </r>
       <r>    0.3515    0.0000 </r>
       <r>    0.4601    0.0000 </r>
       <r>    0.6730    0.0000 </r>
       <r>    0.7498    0.0000 </r>
       <r>    0.8085    0.0000 </r>
       <r>    0.9670    0.0000 </r>
       <r>    1.0651    0.0000 </r>
       <r>    1.1556    0.0000 </r>
       <r>    1.2345    0.0000 </r>
       <r>    1.3182    0.0000 </r>
       <r>    1.3929    0.0000 </r>
       <r>    1.4879    0.0000 </r>
       <r>    1.5831    0.0000 </r>
       <r>    1.6444    0.0000 </r>
       <r>    1.7379    0.0000 </r>
       <r>    1.8282    0.0000 </r>
       <r>    1.9046    0.0000 </r>
       <r>    1.9655    0.0000 </r>
       <r>    2.0217    0.0000 </r>
       <r>    2.0692    0.0000 </r>
       <r>    2.0814    0.0000 </r>
       <r>    2.1306    0.0000 </r>
       <r>    2.1871    0.0000 </r>
       <r>    2.2333    0.0000 </r>
       <r>    2.2970    0.0000 </r>
       <r>    2.3467    0.0000 </r>
      </set>
      <set comment="kpoint 5">
       <r>  -27.8713    1.0000 </r>
       <r>  -27.6943    1.0000 </r>
       <r>  -27.2706    1.0000 </r>
       <r>  -27.2272    1.0000 </r>
       <r>  -26.9932    1.0000 </r>
       <r>  -26.7534    1.0000 </r>
       <r>  -25.7518    1.0000 </r>
       <r>  -25.4156    1.0000 </r>
       <r>  -25.1474    1.0000 </r>
       <r>  -25.0443    1.0000 </r>
       <r>  -25.0075    1.0000 </r>
       <r>  -24.9606    1.0000 </r>
       <r>  -24.8446    1.0000 </r>
       <r>  -24.6940    1.0000 </r>
       <r>  -24.5960    1.0000 </r>
       <r>  -23.1316    1.0000 </r>
       <r>  -23.0174    1.0000 </r>
       <r>  -22.7827    1.0000 </r>
       <r>  -21.8353    1.0000 </r>
       <r>  -21.3961    1.0000 </r>
       <r>  -20.6424    1.0000 </r>
       <r>  -20.4783    1.0000 </r>
       <r>  -19.6588    1.0000 </r>
       <r>  -19.3271    1.0000 </r>
       <r>  -19.2566    1.0000 </r>
       <r>  -18.1772    1.0000 </r>
       <r>  -18.0684    1.0000 </r>
       <r>  -17.6931    1.0000 </r>
       <r>  -17.6137    1.0000 </r>
       <r>  -17.3292    1.0000 </r>
       <r>  -16.8120    1.0000 </r>
       <r>  -16.5086    1.0000 </r>
       <r>  -16.3127    1.0000 </r>
       <r>  -15.6921    1.0000 </r>
       <r>  -15.6082    1.0000 </r>
       <r>  -15.3872    1.0000 </r>
       <r>  -15.3476    1.0000 </r>
       <r>  -15.0878    1.0000 </r>
       <r>  -14.7764    1.0000 </r>
       <r>  -14.6760    1.0000 </r>
       <r>  -14.4495    1.0000 </r>
       <r>  -14.3452    1.0000 </r>
       <r>  -14.1216    1.0000 </r>
       <r>  -13.9519    1.0000 </r>
       <r>  -13.8132    1.0000 </r>
       <r>  -13.6199    1.0000 </r>
       <r>  -13.3116    1.0000 </r>
       <r>  -13.2374    1.0000 </r>
       <r>  -13.0466    1.0000 </r>
       <r>  -13.0078    1.0000 </r>
       <r>  -12.9222    1.0000 </r>
       <r>  -12.5882    1.0000 </r>
       <r>  -12.4682    1.0000 </r>
       <r>  -12.0740    1.0000 </r>
       <r>  -11.7781    1.0000 </r>
       <r>  -11.6381    1.0000 </r>
       <r>  -11.5949    1.0000 </r>
       <r>  -11.3904    1.0000 </r>
       <r>  -11.3199    1.0000 </r>
       <r>  -11.2291    1.0000 </r>
       <r>  -11.1560    1.0000 </r>
       <r>  -11.1004    1.0000 </r>
       <r>  -10.9421    1.0000 </r>
       <r>  -10.8557    1.0000 </r>
       <r>  -10.7360    1.0000 </r>
       <r>  -10.6862    1.0000 </r>
       <r>  -10.6363    1.0000 </r>
       <r>  -10.5294    1.0000 </r>
       <r>  -10.4256    1.0000 </r>
       <r>  -10.2874    1.0000 </r>
       <r>  -10.2295    1.0000 </r>
       <r>  -10.1565    1.0000 </r>
       <r>  -10.0965    1.0000 </r>
       <r>   -9.9926    1.0000 </r>
       <r>   -9.8923    1.0000 </r>
       <r>   -9.8461    1.0000 </r>
       <r>   -9.7272    1.0000 </r>
       <r>   -9.6202    1.0000 </r>
       <r>   -9.4726    1.0000 </r>
       <r>   -9.3847    1.0000 </r>
       <r>   -9.1368    1.0000 </r>
       <r>   -9.0114    1.0000 </r>
       <r>   -8.9910    1.0000 </r>
       <r>   -8.9069    1.0000 </r>
       <r>   -8.8878    1.0000 </r>
       <r>   -8.7909    1.0000 </r>
       <r>   -8.5788    1.0000 </r>
       <r>   -8.5288    1.0000 </r>
       <r>   -8.4941    1.0000 </r>
       <r>   -8.4092    1.0000 </r>
       <r>   -8.2753    1.0000 </r>
       <r>   -8.1496    1.0000 </r>
       <r>   -7.9195    1.0000 </r>
       <r>   -7.7483    1.0000 </r>
       <r>   -7.6012    1.0000 </r>
       <r>   -7.5375    1.0000 </r>
       <r>   -7.3985    1.0000 </r>
       <r>   -7.3414    1.0000 </r>
       <r>   -7.2891    1.0000 </r>
       <r>   -7.1792    1.0000 </r>
       <r>   -7.1170    1.0000 </r>
       <r>   -7.0232    1.0000 </r>
       <r>   -6.9381    1.0000 </r>
       <r>   -6.8107    1.0000 </r>
       <r>   -6.7659    1.0000 </r>
       <r>   -6.6926    1.0000 </r>
       <r>   -6.5813    1.0000 </r>
       <r>   -6.5013    1.0000 </r>
       <r>   -6.3531    1.0000 </r>
       <r>   -6.2807    1.0000 </r>
       <r>   -6.1088    1.0000 </r>
       <r>   -5.9248    1.0000 </r>
       <r>   -5.8340    1.0000 </r>
       <r>   -5.7676    1.0000 </r>
       <r>   -5.7179    1.0000 </r>
       <r>   -5.4054    1.0000 </r>
       <r>   -5.2115    1.0000 </r>
       <r>   -3.0163    0.0000 </r>
       <r>   -2.9728    0.0000 </r>
       <r>   -2.8485    0.0000 </r>
       <r>   -2.7472    0.0000 </r>
       <r>   -2.5594    0.0000 </r>
       <r>   -2.3654    0.0000 </r>
       <r>   -1.6250    0.0000 </r>
       <r>   -1.5146    0.0000 </r>
       <r>   -1.2262    0.0000 </r>
       <r>   -1.1536    0.0000 </r>
[...]
       <r>    2.0713    0.0000 </r>
       <r>    2.1084    0.0000 </r>
       <r>    2.1249    0.0000 </r>
       <r>    2.1791    0.0000 </r>
       <r>    2.2103    0.0000 </r>
       <r>    2.2658    0.0000 </r>
       <r>    2.3453    0.0000 </r>
      </set>
     </set>
    </set>
   </array>
  </eigenvalues>
  <separator name="orbital magnetization" >
   <v name="MAGDIPOLOUT">      0.00000000      0.00000000      0.00000000</v>
  </separator>
  <dos>
   <i name="efermi">     -5.14971228 </i>
   <total>
    <array>
     <dimension dim="1">gridpoints</dimension>
     <dimension dim="2">spin</dimension>
     <field>energy</field>
     <field>total</field>
     <field>integrated</field>
     <set>
      <set comment="spin 1">
       <r>   -29.3855     0.0000     0.0000 </r>
       <r>   -29.2745     0.0000     0.0000 </r>
       <r>   -29.1635     0.0000     0.0000 </r>
       <r>   -29.0524     0.0000     0.0000 </r>
       <r>   -28.9414     0.0000     0.0000 </r>
       <r>   -28.8303     0.0000     0.0000 </r>
       <r>   -28.7193     0.0000     0.0000 </r>
       <r>   -28.6082     0.0000     0.0000 </r>
       <r>   -28.4972     0.0000     0.0000 </r>
       <r>   -28.3861     0.0000     0.0000 </r>
       <r>   -28.2751     0.0000     0.0000 </r>
       <r>   -28.1640     0.0000     0.0000 </r>
       <r>   -28.0530     0.0000     0.0000 </r>
       <r>   -27.9419     0.0000     0.0000 </r>
       <r>   -27.8309    18.0105     2.0000 </r>
       <r>   -27.7199     0.0027     2.0003 </r>
       <r>   -27.6088     0.0000     4.0000 </r>
       <r>   -27.4978     0.0000     4.0000 </r>
       <r>   -27.3867     0.0000     4.0000 </r>
       <r>   -27.2757     4.2402     4.4709 </r>
       <r>   -27.1646    18.0105     8.0000 </r>
       <r>   -27.0536     0.0000     8.0000 </r>
       <r>   -26.9425    18.0105    10.0000 </r>
       <r>   -26.8315     0.0000    10.0000 </r>
       <r>   -26.7204    18.0105    12.0000 </r>
       <r>   -26.6094     0.0000    12.0000 </r>
       <r>   -26.4983     0.0000    12.0000 </r>
       <r>   -26.3873     0.0000    12.0000 </r>
       <r>   -26.2763     0.0000    12.0000 </r>
       <r>   -26.1652     0.0000    12.0000 </r>
       <r>   -26.0542     0.0000    12.0000 </r>
       <r>   -25.9431     0.0000    12.0000 </r>
       <r>   -25.8321     0.0000    12.0000 </r>
       <r>   -25.7210    18.0104    14.0000 </r>
       <r>   -25.6100     0.0000    14.0000 </r>
       <r>   -25.4989     0.0000    14.0000 </r>
       <r>   -25.3879    18.0097    15.9999 </r>
       <r>   -25.2768     0.0000    16.0000 </r>
       <r>   -25.1658     0.0838    16.0093 </r>
       <r>   -25.0547     1.2252    18.1361 </r>
       <r>   -24.9437    35.8779    23.9841 </r>
       <r>   -24.8327    17.2045    25.9105 </r>
       <r>   -24.7216     0.0009    26.0001 </r>
       <r>   -24.6106     0.3725    28.0414 </r>
       <r>   -24.4995     0.0000    30.0000 </r>
       <r>   -24.3885     0.0000    30.0000 </r>
       <r>   -24.2774     0.0000    30.0000 </r>
       <r>   -24.1664     0.0000    30.0000 </r>
       <r>   -24.0553     0.0000    30.0000 </r>
       <r>   -23.9443     0.0000    30.0000 </r>
       <r>   -23.8332     0.0000    30.0000 </r>
       <r>   -23.7222     0.0000    30.0000 </r>
       <r>   -23.6111     0.0000    30.0000 </r>
       <r>   -23.5001     0.0000    30.0000 </r>
       <r>   -23.3891     0.0000    30.0000 </r>
       <r>   -23.2780     0.0000    30.0000 </r>
       <r>   -23.1670     0.0000    30.0000 </r>
       <r>   -23.0559    18.0105    32.0000 </r>
       <r>   -22.9449    18.0105    34.0000 </r>
       <r>   -22.8338     0.0000    34.0000 </r>
       <r>   -22.7228    18.0105    36.0000 </r>
       <r>   -22.6117     0.0000    36.0000 </r>
       <r>   -22.5007     0.0000    36.0000 </r>
       <r>   -22.3896     0.0000    36.0000 </r>
       <r>   -22.2786     0.0000    36.0000 </r>
       <r>   -22.1675     0.0000    36.0000 </r>
       <r>   -22.0565     0.0000    36.0000 </r>
       <r>   -21.9455     0.0000    36.0000 </r>
       <r>   -21.8344     8.2165    36.9124 </r>
       <r>   -21.7234     0.0000    38.0000 </r>
       <r>   -21.6123     0.0000    38.0000 </r>
       <r>   -21.5013     0.0000    38.0000 </r>
       <r>   -21.3902    17.3999    39.9322 </r>
       <r>   -21.2792     0.0000    40.0000 </r>
       <r>   -21.1681     0.0000    40.0000 </r>
       <r>   -21.0571     0.0000    40.0000 </r>
       <r>   -20.9460     0.0000    40.0000 </r>
       <r>   -20.8350     0.0000    40.0000 </r>
       <r>   -20.7239     0.0000    40.0000 </r>
       <r>   -20.6129     6.3746    40.7079 </r>
       <r>   -20.5018     8.3814    41.9974 </r>
       <r>   -20.3908     3.6235    42.6690 </r>
       <r>   -20.2798     6.1253    43.6302 </r>
       <r>   -20.1687     2.5515    44.0000 </r>
       <r>   -20.0577     8.6904    44.9650 </r>
       <r>   -19.9466     2.0954    45.5494 </r>
       <r>   -19.8356     0.7574    45.6674 </r>
       <r>   -19.7245     0.6999    45.7777 </r>
       <r>   -19.6135     0.9082    45.9009 </r>
       <r>   -19.5024     0.3002    46.0000 </r>
       <r>   -19.3914     0.0000    46.0000 </r>
       <r>   -19.2803    17.9318    48.1079 </r>
       <r>   -19.1693     0.6217    48.2190 </r>
       <r>   -19.0582     0.6220    48.3191 </r>
       <r>   -18.9472     0.6347    48.4205 </r>
       <r>   -18.8362     0.8589    48.5454 </r>
       <r>   -18.7251     8.8294    49.7471 </r>
       <r>   -18.6141     0.0000    50.0000 </r>
       <r>   -18.5030     0.6647    50.0738 </r>
       <r>   -18.3920     8.6091    51.4560 </r>
       <r>   -18.2809     1.0297    51.6143 </r>
       <r>   -18.1699     5.0823    52.2310 </r>
       <r>   -18.0588     7.6362    53.9313 </r>
       <r>   -17.9478     0.0000    54.0000 </r>
       <r>   -17.8367     0.0000    54.0000 </r>
       <r>   -17.7257     0.0008    54.0001 </r>
       <r>   -17.6146    16.8481    56.0876 </r>
       <r>   -17.5036    13.1422    57.7594 </r>
       <r>   -17.3926     0.0000    58.0000 </r>
       <r>   -17.2815    18.0104    60.0000 </r>
       <r>   -17.1705     0.0000    60.0000 </r>
       <r>   -17.0594     0.0000    60.0000 </r>
       <r>   -16.9484     0.0000    60.0000 </r>
       <r>   -16.8373     0.5240    60.0582 </r>
       <r>   -16.7263     2.8055    60.8949 </r>
       <r>   -16.6152     6.3545    62.0056 </r>
       <r>   -16.5042    10.5769    63.5412 </r>
       <r>   -16.3931    10.3203    65.1460 </r>
       <r>   -16.2821     4.1851    65.9981 </r>
       <r>   -16.1710     0.0000    66.0000 </r>
       <r>   -16.0600     0.0000    66.0000 </r>
       <r>   -15.9490     0.0000    66.0000 </r>
       <r>   -15.8379     0.0000    66.0000 </r>
       <r>   -15.7269     3.2359    66.3593 </r>
       <r>   -15.6158     9.9625    68.4396 </r>
       <r>   -15.5048    10.8063    70.0000 </r>
       <r>   -15.3937    12.0611    71.3393 </r>
       <r>   -15.2827     5.9713    72.6631 </r>
       <r>   -15.1716    10.0559    74.0000 </r>
       <r>   -15.0606     2.4794    74.2753 </r>
       <r>   -14.9495     9.5405    75.6928 </r>
       <r>   -14.8385     0.0404    76.0045 </r>
       <r>   -14.7274     8.8753    78.0022 </r>
       <r>   -14.6164    10.8063    80.0000 </r>
       <r>   -14.5054     0.0000    80.0000 </r>
       <r>   -14.3943    18.1679    82.0175 </r>
       <r>   -14.2833     6.9040    84.0000 </r>
       <r>   -14.1722     2.4822    84.2756 </r>
       <r>   -14.0612     5.7033    86.0000 </r>
       <r>   -13.9501     5.0813    86.5643 </r>
       <r>   -13.8391     4.4378    88.4928 </r>
       <r>   -13.7280     4.5026    90.0000 </r>
       <r>   -13.6170     1.5801    90.1755 </r>
       <r>   -13.5059    13.9806    91.9192 </r>
       <r>   -13.3949    13.3166    93.6121 </r>
       <r>   -13.2838    15.5422    95.6092 </r>
       <r>   -13.1728    10.5927    96.9429 </r>
       <r>   -13.0618     4.4353    97.6925 </r>
       <r>   -12.9507     7.2064    99.0002 </r>
       <r>   -12.8397     9.3547   100.4888 </r>
       <r>   -12.7286     8.8552   102.0000 </r>
       <r>   -12.6176     0.0416   102.0046 </r>
       <r>   -12.5065    12.6073   104.0000 </r>
       <r>   -12.3955     6.7727   104.7521 </r>
       <r>   -12.2844     2.8517   106.0000 </r>
       <r>   -12.1734     0.0000   106.0000 </r>
       <r>   -12.0623    14.5178   107.6121 </r>
       <r>   -11.9513     0.0000   108.0000 </r>
       <r>   -11.8402     0.0000   108.0000 </r>
       <r>   -11.7292    17.9976   109.9986 </r>
       <r>   -11.6182    21.1425   112.3478 </r>
       <r>   -11.5071     0.0000   114.0000 </r>
       <r>   -11.3961    12.2012   115.3549 </r>
       <r>   -11.2850    12.9108   118.0004 </r>
       <r>   -11.1740    26.6471   121.1591 </r>
       <r>   -11.0629     7.6646   122.5011 </r>
       <r>   -10.9519    16.4480   124.6098 </r>
       <r>   -10.8408     4.7023   126.5222 </r>
       <r>   -10.7298    21.1095   129.3108 </r>
       <r>   -10.6187    24.5216   133.8897 </r>
       <r>   -10.5077    18.0054   135.9994 </r>
       <r>   -10.3966    17.2563   137.9162 </r>
       <r>   -10.2856    14.7590   139.6389 </r>
       <r>   -10.1746    16.2094   141.8000 </r>
       <r>   -10.0635    32.0274   146.4399 </r>
       <r>    -9.9525     4.0524   148.0000 </r>
       <r>    -9.8414    32.0170   151.5554 </r>
       <r>    -9.7304     1.0302   152.1144 </r>
       <r>    -9.6193    16.7614   154.5113 </r>
       <r>    -9.5083     0.0000   156.0000 </r>
       <r>    -9.3972    19.3720   158.1512 </r>
       <r>    -9.2862     0.0000   160.0000 </r>
       <r>    -9.1751     3.4652   160.3848 </r>
       <r>    -9.0641    16.5981   163.5598 </r>
       <r>    -8.9530    20.7278   166.0017 </r>
       <r>    -8.8420    23.9840   169.5633 </r>
       <r>    -8.7310    18.0105   172.0000 </r>
       <r>    -8.6199     2.1292   172.2364 </r>
       <r>    -8.5089    14.6722   175.3626 </r>
       <r>    -8.3978    18.5516   178.2934 </r>
       <r>    -8.2868     8.0056   180.0890 </r>
       <r>    -8.1757     8.4211   182.9351 </r>
       <r>    -8.0647     0.0000   184.0000 </r>
       <r>    -7.9536     0.0000   184.0000 </r>
       <r>    -7.8426    18.0105   186.0000 </r>
       <r>    -7.7315     5.8013   186.6442 </r>
       <r>    -7.6205     5.2409   188.0820 </r>
       <r>    -7.5094    17.9935   191.9981 </r>
       <r>    -7.3984    13.0782   193.4523 </r>
       <r>    -7.2874    22.4066   196.4882 </r>
       <r>    -7.1763    11.8339   199.3141 </r>
       <r>    -7.0653    21.3156   202.3670 </r>
       <r>    -6.9542    21.6256   205.6681 </r>
       <r>    -6.8432     4.0224   206.4467 </r>
       <r>    -6.7321    23.0525   210.3766 </r>
       <r>    -6.6211     4.5276   212.2861 </r>
       <r>    -6.5100    12.3603   214.0726 </r>
       <r>    -6.3990    11.2566   216.0000 </r>
       <r>    -6.2879    16.4447   217.8261 </r>
       <r>    -6.1769    14.8476   219.9988 </r>
       <r>    -6.0658    18.0104   222.0000 </r>
       <r>    -5.9548     8.9105   222.9895 </r>
       <r>    -5.8438     4.5937   224.0434 </r>
       <r>    -5.7327    18.6225   228.0680 </r>
       <r>    -5.6217     5.7033   230.0000 </r>
       <r>    -5.5106     0.0000   230.0000 </r>
       <r>    -5.3996    17.2614   231.9168 </r>
       <r>    -5.2885     0.0000   232.0000 </r>
       <r>    -5.1775    18.0105   234.0000 </r>
       <r>    -5.0664     0.0000   234.0000 </r>
       <r>    -4.9554     0.0000   234.0000 </r>
       <r>    -4.8443     0.0000   234.0000 </r>
       <r>    -4.7333     0.0000   234.0000 </r>
       <r>    -4.6222     0.0000   234.0000 </r>
       <r>    -4.5112     0.0000   234.0000 </r>
       <r>    -4.4002     0.0000   234.0000 </r>
       <r>    -4.2891     0.0000   234.0000 </r>
       <r>    -4.1781     0.0000   234.0000 </r>
       <r>    -4.0670     0.0000   234.0000 </r>
       <r>    -3.9560     0.0000   234.0000 </r>
       <r>    -3.8449     0.0000   234.0000 </r>
       <r>    -3.7339     0.0000   234.0000 </r>
       <r>    -3.6228     0.0000   234.0000 </r>
       <r>    -3.5118     0.0000   234.0000 </r>
       <r>    -3.4007     0.0000   234.0000 </r>
       <r>    -3.2897     0.0000   234.0000 </r>
       <r>    -3.1786     0.0000   234.0000 </r>
       <r>    -3.0676     0.0000   234.0000 </r>
       <r>    -2.9565    35.9683   237.9941 </r>
       <r>    -2.8455     2.6788   238.2975 </r>
       <r>    -2.7345     5.8328   240.6477 </r>
       <r>    -2.6234     8.7051   242.0000 </r>
       <r>    -2.5124    18.0127   244.0002 </r>
       <r>    -2.4013    11.7709   245.5571 </r>
       <r>    -2.2903     1.5009   246.0000 </r>
       <r>    -2.1792     0.0000   246.0000 </r>
       <r>    -2.0682     0.0000   246.0000 </r>
       <r>    -1.9571     0.0000   246.0000 </r>
       <r>    -1.8461     0.0000   246.0000 </r>
       <r>    -1.7350     0.0000   246.0000 </r>
       <r>    -1.6240     3.9683   246.4407 </r>
       <r>    -1.5129     7.8917   248.1430 </r>
       <r>    -1.4019     6.6824   249.0587 </r>
       <r>    -1.2909     3.6021   250.0000 </r>
       <r>    -1.1798    18.1279   252.0130 </r>
       <r>    -1.0688     6.3037   254.0000 </r>
       <r>    -0.9577     0.0000   254.0000 </r>
       <r>    -0.8467     0.0543   254.0060 </r>
       <r>    -0.7356     0.0000   256.0000 </r>
       <r>    -0.6246     0.0000   256.0000 </r>
       <r>    -0.5135     2.9783   256.3307 </r>
       <r>    -0.4025    14.2082   258.6611 </r>
       <r>    -0.2914     9.8422   260.6429 </r>
       <r>    -0.1804     0.0000   262.0000 </r>
       <r>    -0.0693     0.1181   262.0131 </r>
       <r>     0.0417    24.3718   265.1064 </r>
       <r>     0.1527     7.4996   266.4495 </r>
       <r>     0.2638     1.5009   268.0000 </r>
       <r>     0.3748    18.0084   269.9998 </r>
       <r>     0.4859    18.0195   272.0010 </r>
       <r>     0.5969     8.3878   273.6314 </r>
       <r>     0.7080    15.0712   275.4069 </r>
       <r>     0.8190     6.5588   276.4450 </r>
       <r>     0.9301     5.9814   277.5809 </r>
       <r>     1.0411    10.3990   279.5048 </r>
       <r>     1.1522    18.5194   282.0732 </r>
       <r>     1.2632    10.2689   283.6903 </r>
       <r>     1.3743    15.7742   285.9183 </r>
       <r>     1.4853    27.1778   289.8013 </r>
       <r>     1.5963    25.2254   293.1012 </r>
       <r>     1.7074    24.7644   296.9000 </r>
       <r>     1.8184    19.7966   299.7150 </r>
       <r>     1.9295    21.3923   302.7422 </r>
       <r>     2.0405    31.7216   307.7059 </r>
       <r>     2.1516    28.5273   312.1178 </r>
       <r>     2.2626    23.7926   315.4087 </r>
       <r>     2.3737    29.2925   319.5028 </r>
       <r>     2.4847     0.3002   320.0000 </r>
       <r>     2.5958     0.0000   320.0000 </r>
       <r>     2.7068     0.0000   320.0000 </r>
       <r>     2.8179     0.0000   320.0000 </r>
       <r>     2.9289     0.0000   320.0000 </r>
       <r>     3.0399     0.0000   320.0000 </r>
       <r>     3.1510     0.0000   320.0000 </r>
       <r>     3.2620     0.0000   320.0000 </r>
       <r>     3.3731     0.0000   320.0000 </r>
       <r>     3.4841     0.0000   320.0000 </r>
       <r>     3.5952     0.0000   320.0000 </r>
       <r>     3.7062     0.0000   320.0000 </r>
       <r>     3.8173     0.0000   320.0000 </r>
       <r>     3.9283     0.0000   320.0000 </r>
      </set>
     </set>
    </array>
   </total>
  </dos>
 </calculation>
 <structure name="finalpos" >
  <crystal>
   <varray name="basis" >
    <v>      14.14122326      -0.05309099       0.00000000 </v>
    <v>      -7.10780252      13.01989542       0.00000000 </v>
    <v>       0.00000000       0.00000000      20.00000000 </v>
   </varray>
   <i name="volume">   3674.79775553 </i>
   <varray name="rec_basis" >
    <v>       0.07086047       0.03868405       0.00000000 </v>
    <v>       0.00028895       0.07696327       0.00000000 </v>
    <v>       0.00000000       0.00000000       0.05000000 </v>
   </varray>
  </crystal>
  <varray name="positions" >
   <v>       0.57208332       0.49876094       0.43931106 </v>
   <v>       0.93744619       0.54330418       0.46965988 </v>
   <v>       0.63225800       0.06038465       0.48204234 </v>
   <v>       0.07286441       0.50700072       0.54905169 </v>
   <v>       0.43951992       0.94066995       0.54598244 </v>
   <v>       0.38447121       0.44454879       0.50599405 </v>
   <v>       0.79121917       0.25021954       0.51828206 </v>
   <v>       0.74158183       0.51167163       0.48369062 </v>
   <v>       0.47081452       0.20532194       0.48819995 </v>
   <v>       0.26976398       0.79208398       0.50839931 </v>
   <v>       0.22735018       0.48573235       0.48778892 </v>
   <v>       0.54720353       0.74481882       0.49488536 </v>
   <v>       0.06002484       0.74364873       0.34014823 </v>
   <v>       0.67038563       0.84644373       0.37581270 </v>
   <v>       0.42717831       0.58830872       0.34950838 </v>
   <v>       0.08329057       0.43269332       0.62278434 </v>
   <v>       0.33926600       0.94098312       0.61077299 </v>
   <v>       0.28061623       0.34326914       0.57088371 </v>
   <v>       0.42057095       0.37662832       0.50051980 </v>
   <v>       0.33535042       0.26963326       0.52244624 </v>
   <v>       0.59673452       0.36288454       0.48509890 </v>
   <v>       0.55691127       0.25707817       0.49311041 </v>
   <v>       0.62694070       0.21719397       0.50532184 </v>
   <v>       0.73786643       0.28278683       0.50961770 </v>
   <v>       0.77890186       0.38947364       0.50349748 </v>
   <v>       0.70884708       0.42892489       0.48973687 </v>
   <v>       0.39188642       0.60875775       0.48722966 </v>
   <v>       0.46018020       0.71535241       0.49297140 </v>
   <v>       0.41647169       0.78179720       0.50061458 </v>
   <v>       0.30364212       0.74049366       0.50257623 </v>
   <v>       0.23508980       0.63429415       0.49843388 </v>
   <v>       0.27985500       0.56867932       0.49114658 </v>
   <v>       0.04354734       0.60665664       0.46827666 </v>
   <v>       0.11591489       0.58498460       0.50529347 </v>
   <v>       0.07917700       0.70154450       0.42581841 </v>
   <v>       0.58666675       0.95802600       0.48090021 </v>
   <v>       0.48303023       0.89469852       0.50888624 </v>
   <v>       0.65628526       0.91597442       0.45217285 </v>
   <v>       0.52560120       0.55794219       0.43615852 </v>
   <v>       0.43550768       0.53738936       0.47699193 </v>
   <v>       0.57142018       0.64477348       0.38586295 </v>
   <v>       0.89544699       0.46082751       0.51038388 </v>
   <v>       0.96589993       0.44858245       0.55541188 </v>
   <v>       0.93330771       0.37872041       0.61644284 </v>
   <v>       0.58158964       0.10521428       0.51335847 </v>
   <v>       0.48775008       0.04303760       0.55129885 </v>
   <v>       0.43862015       0.08177013       0.60412859 </v>
   <v>       0.52656905       0.40976543       0.47384643 </v>
   <v>       0.32641485       0.18951699       0.50008157 </v>
   <v>       0.13713997       0.78887756       0.44608013 </v>
   <v>       0.03753035       0.67821900       0.36348550 </v>
   <v>       0.72494273       0.91023058       0.48597040 </v>
   <v>       0.63157997       0.88470561       0.38841910 </v>
   <v>       0.66561146       0.71148272       0.38397905 </v>
   <v>       0.49951118       0.64551012       0.34116323 </v>
   <v>       0.84120620       0.32781185       0.63648651 </v>
   <v>       0.01911948       0.38173476       0.64805726 </v>
   <v>       0.47614932       0.17131739       0.62107349 </v>
   <v>       0.34986780       0.00519838       0.63272983 </v>
   <v>       0.26349730       0.27069315       0.56616866 </v>
  </varray>
 </structure>
</modeling>
