<?xml version="1.0" encoding="ISO-8859-1"?>
<modeling>
 <generator>
  <i name="program" type="string">vasp </i>
  <i name="version" type="string">5.4.4.18Apr17-6-g9f103f2a35  </i>
  <i name="subversion" type="string">(build Jun 07 2020 16:50:00) complex            parallel </i>
  <i name="platform" type="string">LinuxIFC </i>
  <i name="date" type="string">2023 02 16 </i>
  <i name="time" type="string">03:18:16 </i>
 </generator>
 <incar>
  <i type="string" name="SYSTEM">Simulation for cell shape cell volume r</i>
  <i type="int" name="ISTART">     1</i>
  <i type="string" name="PREC">high</i>
  <i type="string" name="ALGO">48</i>
  <i type="int" name="ICHARG">    11</i>
  <i type="int" name="NELM">   200</i>
  <i type="int" name="IBRION">    -1</i>
  <i name="EDIFF">      0.00001000</i>
  <i name="EDIFFG">     -0.01000000</i>
  <i type="int" name="NSW">     0</i>
  <i type="int" name="ISIF">     2</i>
  <i name="ENCUT">    500.00000000</i>
  <i name="POTIM">      0.30000000</i>
  <i type="string" name="LREAL">A</i>
  <i type="int" name="ISMEAR">     0</i>
  <i name="SIGMA">      0.01000000</i>
  <i type="int" name="NWRITE">     0</i>
  <i type="logical" name="LWAVE"> F  </i>
  <i type="logical" name="LCHARG"> F  </i>
  <v type="int" name="KPOINT_BSE">    -1     0     0     0</v>
  <i type="int" name="NELM">   200</i>
  <i type="string" name="GGA">PE</i>
 </incar>
 <structure name="primitive_cell" >
  <crystal>
   <varray name="basis" >
    <v>      22.42341563       0.00267485       0.00000000 </v>
    <v>     -11.20947929      19.40545913       0.00000000 </v>
    <v>       0.00000000      -0.00000000      20.00000000 </v>
   </varray>
   <i name="volume">   8703.33318478 </i>
   <varray name="rec_basis" >
    <v>       0.04459317       0.02575905       0.00000000 </v>
    <v>      -0.00000615       0.05152834       0.00000000 </v>
    <v>       0.00000000       0.00000000       0.05000000 </v>
   </varray>
  </crystal>
  <varray name="positions" >
   <v>      -0.45795538       0.23822699      -0.48666234 </v>
   <v>      -0.40436559       0.27949161      -0.49013680 </v>
   <v>      -0.44773211       0.16350277       0.46001025 </v>
   <v>      -0.39196533       0.34730669      -0.49053265 </v>
   <v>      -0.34960273       0.26645328      -0.49049838 </v>
   <v>       0.49081354       0.31205206      -0.46458291 </v>
   <v>      -0.45372780       0.35682410      -0.48813358 </v>
   <v>      -0.42004543       0.14548828       0.48394384 </v>
   <v>      -0.35930241       0.19507795      -0.48798867 </v>
   <v>       0.45412906       0.10370751       0.42324885 </v>
   <v>      -0.32414606       0.40210057      -0.49020268 </v>
   <v>      -0.28180875       0.32185456      -0.49008028 </v>
   <v>      -0.44836383       0.07362186       0.48212056 </v>
   <v>      -0.26875150       0.38971380      -0.49063512 </v>
   <v>      -0.44216167       0.41820449       0.48508247 </v>
   <v>      -0.31516763       0.18413259      -0.46326042 </v>
   <v>       0.47244474       0.07462850       0.39331895 </v>
   <v>      -0.48606215       0.11175406       0.36047396 </v>
   <v>      -0.39599913       0.44657254       0.46212525 </v>
   <v>      -0.24062532       0.30942636      -0.48653510 </v>
   <v>      -0.31165358       0.45576548      -0.48679474 </v>
   <v>       0.49627297       0.03597328       0.43744852 </v>
   <v>       0.44119316       0.37657558      -0.44446306 </v>
   <v>      -0.42424505       0.04011309      -0.47597853 </v>
   <v>       0.42926003       0.04013527       0.36135562 </v>
   <v>      -0.38070753       0.07009566      -0.44315085 </v>
   <v>      -0.48549500       0.44672944       0.48355911 </v>
   <v>       0.45574494       0.42127082      -0.47596217 </v>
   <v>      -0.19746566       0.45158184      -0.48851439 </v>
   <v>       0.46432414      -0.03643402       0.43532602 </v>
   <v>      -0.16540136       0.39384816       0.46179549 </v>
   <v>      -0.40636616       0.48843083       0.36404836 </v>
   <v>      -0.45798984      -0.03133287      -0.47620389 </v>
   <v>      -0.18674569      -0.49282681      -0.46524490 </v>
   <v>      -0.14764388       0.44001033       0.48476547 </v>
   <v>      -0.46631246      -0.49623034       0.44068223 </v>
   <v>      -0.35611611      -0.45387286       0.42888488 </v>
   <v>       0.48625960      -0.06943050       0.48111442 </v>
   <v>      -0.40270156      -0.47108962       0.39796689 </v>
   <v>       0.40968754      -0.07772928       0.38424347 </v>
   <v>       0.42213044      -0.05175508       0.33548482 </v>
   <v>       0.41819794       0.45515408      -0.47584671 </v>
   <v>       0.35881781      -0.08686113       0.40007022 </v>
   <v>      -0.44177968      -0.05825663      -0.44171358 </v>
   <v>      -0.10551770       0.35515398       0.42567530 </v>
   <v>       0.37404841       0.43781660      -0.44248997 </v>
   <v>      -0.11375243       0.40641643       0.36245495 </v>
   <v>       0.49354374      -0.46396615       0.43895773 </v>
   <v>      -0.39306011      -0.42682467       0.36719073 </v>
   <v>      -0.07580815       0.48361697       0.48299185 </v>
   <v>       0.43722653      -0.48753962       0.48326127 </v>
   <v>       0.40491875      -0.12844332       0.37702159 </v>
   <v>       0.45284365      -0.14247963       0.48455919 </v>
   <v>       0.34385053      -0.16165523      -0.49622067 </v>
   <v>      -0.07655941       0.40237743       0.39545758 </v>
   <v>      -0.07247650      -0.44403943      -0.44366778 </v>
   <v>       0.38389587      -0.18412802       0.49753278 </v>
   <v>      -0.03801895       0.46527013       0.43914389 </v>
   <v>      -0.04243740      -0.45816917      -0.47578521 </v>
   <v>       0.48355472      -0.16360498       0.48779756 </v>
   <v>      -0.47589636      -0.41741982       0.34102204 </v>
   <v>      -0.04203853       0.39355915       0.36367790 </v>
   <v>      -0.49130920      -0.40718891       0.38984949 </v>
   <v>       0.39745947      -0.45429324       0.48674683 </v>
   <v>      -0.45026698      -0.35701020       0.40811376 </v>
   <v>       0.34550876      -0.48497401       0.48664572 </v>
   <v>       0.46299448      -0.40220744       0.38184780 </v>
   <v>       0.03437999      -0.49442784       0.43733004 </v>
   <v>       0.02898113      -0.42060984      -0.47568715 </v>
   <v>       0.35861686      -0.26018756      -0.49908034 </v>
   <v>       0.48620211      -0.34598852      -0.48873236 </v>
   <v>       0.42409850      -0.38584406      -0.49816898 </v>
   <v>       0.25657717      -0.27808735      -0.49952401 </v>
   <v>       0.06723095      -0.43897568       0.48262217 </v>
   <v>       0.45738406      -0.25849592      -0.49720925 </v>
   <v>       0.05581155      -0.37696046      -0.44174413 </v>
   <v>       0.05010234       0.47737604       0.33818755 </v>
   <v>       0.28704541      -0.30377772      -0.49889046 </v>
   <v>       0.40123210      -0.28905614      -0.49772601 </v>
   <v>       0.07588900       0.49164659       0.38701417 </v>
   <v>       0.08511747       0.45021273       0.40377106 </v>
   <v>       0.27614772      -0.45948147      -0.49516557 </v>
   <v>       0.37321109      -0.36065620      -0.49690390 </v>
   <v>       0.16134220      -0.34740729       0.48849334 </v>
   <v>       0.12652414      -0.46240169       0.37953675 </v>
   <v>       0.30171295      -0.40331278      -0.49661162 </v>
   <v>       0.14022741      -0.39932804       0.48634336 </v>
   <v>       0.25812600      -0.37532853      -0.49791871 </v>
   <v>       0.15984518      -0.48865680      -0.49252097 </v>
   <v>       0.18206201      -0.42629006       0.49990126 </v>
  </varray>
 </structure>
 <varray name="primitive_index" >
  <v type="int" >        1 </v>
  <v type="int" >       46 </v>
  <v type="int" >       13 </v>
  <v type="int" >       45 </v>
  <v type="int" >       72 </v>
  <v type="int" >       87 </v>
  <v type="int" >       49 </v>
  <v type="int" >       37 </v>
  <v type="int" >       73 </v>
  <v type="int" >        9 </v>
  <v type="int" >       44 </v>
  <v type="int" >       47 </v>
  <v type="int" >       57 </v>
  <v type="int" >       43 </v>
  <v type="int" >       39 </v>
  <v type="int" >       85 </v>
  <v type="int" >       60 </v>
  <v type="int" >        7 </v>
  <v type="int" >       27 </v>
  <v type="int" >        2 </v>
  <v type="int" >        3 </v>
  <v type="int" >       58 </v>
  <v type="int" >       34 </v>
  <v type="int" >       78 </v>
  <v type="int" >        8 </v>
  <v type="int" >       28 </v>
  <v type="int" >       67 </v>
  <v type="int" >       84 </v>
  <v type="int" >       48 </v>
  <v type="int" >       59 </v>
  <v type="int" >       20 </v>
  <v type="int" >       21 </v>
  <v type="int" >       77 </v>
  <v type="int" >       86 </v>
  <v type="int" >       38 </v>
  <v type="int" >       68 </v>
  <v type="int" >       23 </v>
  <v type="int" >       76 </v>
  <v type="int" >       70 </v>
  <v type="int" >       61 </v>
  <v type="int" >       12 </v>
  <v type="int" >       83 </v>
  <v type="int" >       11 </v>
  <v type="int" >       29 </v>
  <v type="int" >       16 </v>
  <v type="int" >       35 </v>
  <v type="int" >       14 </v>
  <v type="int" >       69 </v>
  <v type="int" >       22 </v>
  <v type="int" >       62 </v>
  <v type="int" >       82 </v>
  <v type="int" >       10 </v>
  <v type="int" >       40 </v>
  <v type="int" >       88 </v>
  <v type="int" >       65 </v>
  <v type="int" >       31 </v>
  <v type="int" >       75 </v>
  <v type="int" >       63 </v>
  <v type="int" >       81 </v>
  <v type="int" >       30 </v>
  <v type="int" >       26 </v>
  <v type="int" >       15 </v>
  <v type="int" >       71 </v>
  <v type="int" >       42 </v>
  <v type="int" >       25 </v>
  <v type="int" >       36 </v>
  <v type="int" >       24 </v>
  <v type="int" >       64 </v>
  <v type="int" >       80 </v>
  <v type="int" >       74 </v>
  <v type="int" >       90 </v>
  <v type="int" >       56 </v>
  <v type="int" >        5 </v>
  <v type="int" >       79 </v>
  <v type="int" >        4 </v>
  <v type="int" >       32 </v>
  <v type="int" >       19 </v>
  <v type="int" >       54 </v>
  <v type="int" >       53 </v>
  <v type="int" >       66 </v>
  <v type="int" >       18 </v>
  <v type="int" >        6 </v>
  <v type="int" >       52 </v>
  <v type="int" >       33 </v>
  <v type="int" >       17 </v>
  <v type="int" >       51 </v>
  <v type="int" >       41 </v>
  <v type="int" >       50 </v>
  <v type="int" >       89 </v>
  <v type="int" >       55 </v>
 </varray>
 <kpoints>
  <generation param="listgenerated">
   <i name="divisions" type="int">      20 </i>
   <v>       0.00000000       0.00000000       0.00000000 </v>
   <v>       0.50000000       0.00000000       0.00000000 </v>
   <v>       0.33333333       0.33333333       0.00000000 </v>
   <v>       0.00000000       0.00000000       0.00000000 </v>
  </generation>
  <varray name="kpointlist" >
   <v>       0.00000000       0.00000000       0.00000000 </v>
   <v>       0.02631579       0.00000000       0.00000000 </v>
   <v>       0.05263158       0.00000000       0.00000000 </v>
   <v>       0.07894737       0.00000000       0.00000000 </v>
   <v>       0.10526316       0.00000000       0.00000000 </v>
   <v>       0.13157895       0.00000000       0.00000000 </v>
   <v>       0.15789474       0.00000000       0.00000000 </v>
   <v>       0.18421053       0.00000000       0.00000000 </v>
   <v>       0.21052632       0.00000000       0.00000000 </v>
   <v>       0.23684211       0.00000000       0.00000000 </v>
   <v>       0.26315789       0.00000000       0.00000000 </v>
   <v>       0.28947368       0.00000000       0.00000000 </v>
   <v>       0.31578947       0.00000000       0.00000000 </v>
   <v>       0.34210526       0.00000000       0.00000000 </v>
   <v>       0.36842105       0.00000000       0.00000000 </v>
   <v>       0.39473684       0.00000000       0.00000000 </v>
   <v>       0.42105263       0.00000000       0.00000000 </v>
   <v>       0.44736842       0.00000000       0.00000000 </v>
   <v>       0.47368421       0.00000000       0.00000000 </v>
   <v>       0.50000000       0.00000000       0.00000000 </v>
   <v>       0.50000000       0.00000000       0.00000000 </v>
   <v>       0.49122807       0.01754386       0.00000000 </v>
   <v>       0.48245614       0.03508772       0.00000000 </v>
   <v>       0.47368421       0.05263158       0.00000000 </v>
   <v>       0.46491228       0.07017544       0.00000000 </v>
   <v>       0.45614035       0.08771930       0.00000000 </v>
   <v>       0.44736842       0.10526316       0.00000000 </v>
   <v>       0.43859649       0.12280702       0.00000000 </v>
   <v>       0.42982456       0.14035088       0.00000000 </v>
   <v>       0.42105263       0.15789474       0.00000000 </v>
   <v>       0.41228070       0.17543860       0.00000000 </v>
   <v>       0.40350877       0.19298246       0.00000000 </v>
   <v>       0.39473684       0.21052632       0.00000000 </v>
   <v>       0.38596491       0.22807018       0.00000000 </v>
   <v>       0.37719298       0.24561404       0.00000000 </v>
   <v>       0.36842105       0.26315789       0.00000000 </v>
   <v>       0.35964912       0.28070175       0.00000000 </v>
   <v>       0.35087719       0.29824561       0.00000000 </v>
   <v>       0.34210526       0.31578947       0.00000000 </v>
   <v>       0.33333333       0.33333333       0.00000000 </v>
   <v>       0.33333333       0.33333333       0.00000000 </v>
   <v>       0.31578947       0.31578947       0.00000000 </v>
   <v>       0.29824561       0.29824561       0.00000000 </v>
   <v>       0.28070175       0.28070175       0.00000000 </v>
   <v>       0.26315789       0.26315789       0.00000000 </v>
   <v>       0.24561404       0.24561404       0.00000000 </v>
   <v>       0.22807018       0.22807018       0.00000000 </v>
   <v>       0.21052632       0.21052632       0.00000000 </v>
   <v>       0.19298246       0.19298246       0.00000000 </v>
   <v>       0.17543860       0.17543860       0.00000000 </v>
   <v>       0.15789474       0.15789474       0.00000000 </v>
   <v>       0.14035088       0.14035088       0.00000000 </v>
   <v>       0.12280702       0.12280702       0.00000000 </v>
   <v>       0.10526316       0.10526316       0.00000000 </v>
   <v>       0.08771930       0.08771930       0.00000000 </v>
   <v>       0.07017544       0.07017544       0.00000000 </v>
   <v>       0.05263158       0.05263158       0.00000000 </v>
   <v>       0.03508772       0.03508772       0.00000000 </v>
   <v>       0.01754386       0.01754386       0.00000000 </v>
   <v>       0.00000000       0.00000000       0.00000000 </v>
  </varray>
  <varray name="weights" >
   <v>       0.01666667 </v>
   <v>       0.01666667 </v>
   <v>       0.01666667 </v>
   <v>       0.01666667 </v>
   <v>       0.01666667 </v>
   <v>       0.01666667 </v>
   <v>       0.01666667 </v>
   <v>       0.01666667 </v>
   <v>       0.01666667 </v>
   <v>       0.01666667 </v>
   <v>       0.01666667 </v>
   <v>       0.01666667 </v>
   <v>       0.01666667 </v>
   <v>       0.01666667 </v>
   <v>       0.01666667 </v>
   <v>       0.01666667 </v>
   <v>       0.01666667 </v>
   <v>       0.01666667 </v>
   <v>       0.01666667 </v>
   <v>       0.01666667 </v>
   <v>       0.01666667 </v>
   <v>       0.01666667 </v>
   <v>       0.01666667 </v>
   <v>       0.01666667 </v>
   <v>       0.01666667 </v>
   <v>       0.01666667 </v>
   <v>       0.01666667 </v>
   <v>       0.01666667 </v>
   <v>       0.01666667 </v>
   <v>       0.01666667 </v>
   <v>       0.01666667 </v>
   <v>       0.01666667 </v>
   <v>       0.01666667 </v>
   <v>       0.01666667 </v>
   <v>       0.01666667 </v>
   <v>       0.01666667 </v>
   <v>       0.01666667 </v>
   <v>       0.01666667 </v>
   <v>       0.01666667 </v>
   <v>       0.01666667 </v>
   <v>       0.01666667 </v>
   <v>       0.01666667 </v>
   <v>       0.01666667 </v>
   <v>       0.01666667 </v>
   <v>       0.01666667 </v>
   <v>       0.01666667 </v>
   <v>       0.01666667 </v>
   <v>       0.01666667 </v>
   <v>       0.01666667 </v>
   <v>       0.01666667 </v>
   <v>       0.01666667 </v>
   <v>       0.01666667 </v>
   <v>       0.01666667 </v>
   <v>       0.01666667 </v>
   <v>       0.01666667 </v>
   <v>       0.01666667 </v>
   <v>       0.01666667 </v>
   <v>       0.01666667 </v>
   <v>       0.01666667 </v>
   <v>       0.01666667 </v>
  </varray>
 </kpoints>
 <parameters>
  <separator name="general" >
   <i type="string" name="SYSTEM">Simulation for cell shape cell volume r</i>
   <i type="logical" name="LCOMPAT"> F  </i>
  </separator>
  <separator name="electronic" >
   <i type="string" name="PREC">high</i>
   <i name="ENMAX">    500.00000000</i>
   <i name="ENAUG">    644.87300000</i>
   <i name="EDIFF">      0.00001000</i>
   <i type="int" name="IALGO">    38</i>
   <i type="int" name="IWAVPR">    10</i>
   <i type="int" name="NBANDS">   192</i>
   <i name="NELECT">    270.00000000</i>
   <i type="int" name="TURBO">     0</i>
   <i type="int" name="IRESTART">     0</i>
   <i type="int" name="NREBOOT">     0</i>
   <i type="int" name="NMIN">     0</i>
   <i name="EREF">      0.00000000</i>
   <separator name="electronic smearing" >
    <i type="int" name="ISMEAR">     0</i>
    <i name="SIGMA">      0.01000000</i>
    <i name="KSPACING">      0.50000000</i>
    <i type="logical" name="KGAMMA"> T  </i>
   </separator>
   <separator name="electronic projectors" >
    <i type="logical" name="LREAL"> T  </i>
    <v name="ROPT">     -0.00040000     -0.00040000     -0.00040000     -0.00040000</v>
    <i type="int" name="LMAXPAW">  -100</i>
    <i type="int" name="LMAXMIX">     2</i>
    <i type="logical" name="NLSPLINE"> F  </i>
   </separator>
   <separator name="electronic startup" >
    <i type="int" name="ISTART">     1</i>
    <i type="int" name="ICHARG">    11</i>
    <i type="int" name="INIWAV">     1</i>
   </separator>
   <separator name="electronic spin" >
    <i type="int" name="ISPIN">     1</i>
    <i type="logical" name="LNONCOLLINEAR"> F  </i>
    <v name="MAGMOM">      1.00000000      1.00000000      1.00000000      1.00000000      1.00000000      1.00000000      1.00000000      1.00000000      1.00000000      1.00000000      1.00000000      1.00000000      1.00000000      1.00000000      1.00000000      1.00000000      1.00000000      1.00000000      1.00000000      1.00000000
      1.00000000      1.00000000      1.00000000      1.00000000      1.00000000      1.00000000      1.00000000      1.00000000      1.00000000      1.00000000      1.00000000      1.00000000      1.00000000      1.00000000      1.00000000      1.00000000      1.00000000      1.00000000      1.00000000      1.00000000
      1.00000000      1.00000000      1.00000000      1.00000000      1.00000000      1.00000000      1.00000000      1.00000000      1.00000000      1.00000000      1.00000000      1.00000000      1.00000000      1.00000000      1.00000000      1.00000000      1.00000000      1.00000000      1.00000000      1.00000000
      1.00000000      1.00000000      1.00000000      1.00000000      1.00000000      1.00000000      1.00000000      1.00000000      1.00000000      1.00000000      1.00000000      1.00000000      1.00000000      1.00000000      1.00000000      1.00000000      1.00000000      1.00000000      1.00000000      1.00000000
      1.00000000      1.00000000      1.00000000      1.00000000      1.00000000      1.00000000      1.00000000      1.00000000      1.00000000      1.00000000</v>
    <i name="NUPDOWN">     -1.00000000</i>
    <i type="logical" name="LSORBIT"> F  </i>
    <v name="SAXIS">      0.00000000      0.00000000      1.00000000</v>
    <i type="logical" name="LSPIRAL"> F  </i>
    <v name="QSPIRAL">      0.00000000      0.00000000      0.00000000</v>
    <i type="logical" name="LZEROZ"> F  </i>
   </separator>
   <separator name="electronic exchange-correlation" >
    <i type="logical" name="LASPH"> F  </i>
    <i type="logical" name="LMETAGGA"> F  </i>
   </separator>
   <separator name="electronic convergence" >
    <i type="int" name="NELM">   200</i>
    <i type="int" name="NELMDL">     0</i>
    <i type="int" name="NELMIN">     2</i>
    <i name="ENINI">    500.00000000</i>
    <separator name="electronic convergence detail" >
     <i type="logical" name="LDIAG"> T  </i>
     <i type="logical" name="LSUBROT"> F  </i>
     <i name="WEIMIN">      0.00000000</i>
     <i name="EBREAK">      0.00000001</i>
     <i name="DEPER">      0.30000000</i>
     <i type="int" name="NRMM">     4</i>
     <i name="TIME">      0.40000000</i>
    </separator>
   </separator>
   <separator name="electronic mixer" >
    <i name="AMIX">      0.40000000</i>
    <i name="BMIX">      1.00000000</i>
    <i name="AMIN">      0.10000000</i>
    <i name="AMIX_MAG">      1.60000000</i>
    <i name="BMIX_MAG">      1.00000000</i>
    <separator name="electronic mixer details" >
     <i type="int" name="IMIX">     4</i>
     <i type="logical" name="MIXFIRST"> F  </i>
     <i type="int" name="MAXMIX">   -45</i>
     <i name="WC">    100.00000000</i>
     <i type="int" name="INIMIX">     1</i>
     <i type="int" name="MIXPRE">     1</i>
     <i type="int" name="MREMOVE">     5</i>
    </separator>
   </separator>
   <separator name="electronic dipolcorrection" >
    <i type="logical" name="LDIPOL"> F  </i>
    <i type="logical" name="LMONO"> F  </i>
    <i type="int" name="IDIPOL">     0</i>
    <i name="EPSILON">      1.00000000</i>
    <v name="DIPOL">   -100.00000000   -100.00000000   -100.00000000</v>
    <i name="EFIELD">      0.00000000</i>
   </separator>
  </separator>
  <separator name="grids" >
   <i type="int" name="NGX">   168</i>
   <i type="int" name="NGY">   168</i>
   <i type="int" name="NGZ">   150</i>
   <i type="int" name="NGXF">   250</i>
   <i type="int" name="NGYF">   250</i>
   <i type="int" name="NGZF">   224</i>
   <i type="logical" name="ADDGRID"> F  </i>
  </separator>
  <separator name="ionic" >
   <i type="int" name="NSW">     0</i>
   <i type="int" name="IBRION">    -1</i>
   <i type="int" name="MDALGO">     0</i>
   <i type="int" name="ISIF">     2</i>
   <i name="PSTRESS">      0.00000000</i>
   <i name="EDIFFG">     -0.01000000</i>
   <i type="int" name="NFREE">     0</i>
   <i name="POTIM">      0.30000000</i>
   <i name="SMASS">     -3.00000000</i>
   <i name="SCALEE">      1.00000000</i>
  </separator>
  <separator name="ionic md" >
   <i name="TEBEG">      0.00010000</i>
   <i name="TEEND">      0.00010000</i>
   <i type="int" name="NBLOCK">     1</i>
   <i type="int" name="KBLOCK">     1</i>
   <i type="int" name="NPACO">   256</i>
   <i name="APACO">     16.00000000</i>
  </separator>
  <separator name="symmetry" >
   <i type="int" name="ISYM">     2</i>
   <i name="SYMPREC">      0.00001000</i>
  </separator>
  <separator name="dos" >
   <i type="int" name="LORBIT">     0</i>
   <v name="RWIGS">     -1.00000000     -1.00000000     -1.00000000     -1.00000000</v>
   <i type="int" name="NEDOS">   301</i>
   <i name="EMIN">     10.00000000</i>
   <i name="EMAX">    -10.00000000</i>
   <i name="EFERMI">      0.00000000</i>
  </separator>
  <separator name="writing" >
   <i type="int" name="NWRITE">     0</i>
   <i type="logical" name="LWAVE"> F  </i>
   <i type="logical" name="LDOWNSAMPLE"> F  </i>
   <i type="logical" name="LCHARG"> F  </i>
   <i type="logical" name="LPARD"> F  </i>
   <i type="logical" name="LVTOT"> F  </i>
   <i type="logical" name="LVHAR"> F  </i>
   <i type="logical" name="LELF"> F  </i>
   <i type="logical" name="LOPTICS"> F  </i>
   <v name="STM">      0.00000000      0.00000000      0.00000000      0.00000000      0.00000000      0.00000000      0.00000000</v>
  </separator>
  <separator name="performance" >
   <i type="int" name="NPAR">    16</i>
   <i type="int" name="NSIM">     4</i>
   <i type="int" name="NBLK">    -1</i>
   <i type="logical" name="LPLANE"> T  </i>
   <i type="logical" name="LSCALAPACK"> T  </i>
   <i type="logical" name="LSCAAWARE"> F  </i>
   <i type="logical" name="LSCALU"> F  </i>
   <i type="logical" name="LASYNC"> F  </i>
   <i type="logical" name="LORBITALREAL"> F  </i>
  </separator>
  <separator name="miscellaneous" >
   <i type="int" name="IDIOT">     3</i>
   <i type="int" name="ISPECIAL">     0</i>
   <i type="logical" name="LMUSIC"> F  </i>
   <v name="POMASS">      1.00000000     14.00100000     12.01100000     16.00000000</v>
   <v name="DARWINR">      0.00000000      0.00000000      0.00000000      0.00000000</v>
   <v name="DARWINV">      1.00000000      1.00000000      1.00000000      1.00000000</v>
   <i type="logical" name="LCORR"> T  </i>
  </separator>
  <i type="logical" name="GGA_COMPAT"> T  </i>
  <i type="logical" name="LBERRY"> F  </i>
  <i type="int" name="ICORELEVEL">     0</i>
  <i type="logical" name="LDAU"> F  </i>
  <i type="int" name="I_CONSTRAINED_M">     0</i>
  <separator name="electronic exchange-correlation" >
   <i type="string" name="GGA">PE</i>
   <i type="int" name="VOSKOWN">     0</i>
   <i type="logical" name="LHFCALC"> F  </i>
   <i type="string" name="PRECFOCK"></i>
   <i type="logical" name="LSYMGRAD"> F  </i>
   <i type="logical" name="LHFONE"> F  </i>
   <i type="logical" name="LRHFCALC"> F  </i>
   <i type="logical" name="LTHOMAS"> F  </i>
   <i type="logical" name="LMODELHF"> F  </i>
   <i name="ENCUT4O">     -1.00000000</i>
   <i type="int" name="EXXOEP">     0</i>
   <i type="int" name="FOURORBIT">     0</i>
   <i name="AEXX">      0.00000000</i>
   <i name="HFALPHA">      0.00000000</i>
   <i name="MCALPHA">      0.00000000</i>
   <i name="ALDAX">      1.00000000</i>
   <i name="AGGAX">      1.00000000</i>
   <i name="ALDAC">      1.00000000</i>
   <i name="AGGAC">      1.00000000</i>
   <i type="int" name="NKREDX">     1</i>
   <i type="int" name="NKREDY">     1</i>
   <i type="int" name="NKREDZ">     1</i>
   <i type="logical" name="SHIFTRED"> F  </i>
   <i type="logical" name="ODDONLY"> F  </i>
   <i type="logical" name="EVENONLY"> F  </i>
   <i type="int" name="LMAXFOCK">     0</i>
   <i type="int" name="NMAXFOCKAE">     0</i>
   <i type="logical" name="LFOCKAEDFT"> F  </i>
   <i name="HFSCREEN">      0.00000000</i>
   <i name="HFSCREENC">      0.00000000</i>
   <i type="int" name="NBANDSGWLOW">     0</i>
  </separator>
  <separator name="vdW DFT" >
   <i type="logical" name="LUSE_VDW"> F  </i>
   <i name="Zab_VDW">     -0.84910000</i>
   <i name="PARAM1">      0.12340000</i>
   <i name="PARAM2">      1.00000000</i>
   <i name="PARAM3">      0.00000000</i>
  </separator>
  <separator name="model GW" >
   <i type="int" name="MODEL_GW">     0</i>
   <i name="MODEL_EPS0">     58.02222123</i>
   <i name="MODEL_ALPHA">      1.00000000</i>
  </separator>
  <separator name="linear response parameters" >
   <i type="logical" name="LEPSILON"> F  </i>
   <i type="logical" name="LRPA"> F  </i>
   <i type="logical" name="LNABLA"> F  </i>
   <i type="logical" name="LVEL"> F  </i>
   <i type="int" name="KINTER">     0</i>
   <i name="CSHIFT">      0.10000000</i>
   <i name="OMEGAMAX">     -1.00000000</i>
   <i name="DEG_THRESHOLD">      0.00200000</i>
   <i name="RTIME">     -0.10000000</i>
   <i name="WPLASMAI">      0.00000000</i>
   <v name="DFIELD">      0.00000000      0.00000000      0.00000000</v>
   <v name="WPLASMA">      0.00000000      0.00000000      0.00000000      0.00000000      0.00000000      0.00000000      0.00000000      0.00000000      0.00000000</v>
  </separator>
  <separator name="orbital magnetization" >
   <i type="logical" name="NUCIND"> F  </i>
   <v name="MAGPOS">      0.00000000      0.00000000      0.00000000</v>
   <i type="logical" name="LNICSALL"> T  </i>
   <i type="logical" name="ORBITALMAG"> F  </i>
   <i type="logical" name="LMAGBLOCH"> F  </i>
   <i type="logical" name="LCHIMAG"> F  </i>
   <i type="logical" name="LGAUGE"> T  </i>
   <i type="int" name="MAGATOM">     0</i>
   <v name="MAGDIPOL">      0.00000000      0.00000000      0.00000000</v>
   <v name="AVECCONST">      0.00000000      0.00000000      0.00000000</v>
  </separator>
  <separator name="response functions" >
   <i type="logical" name="LADDER"> F  </i>
   <i type="logical" name="LRPAFORCE"> F  </i>
   <i type="logical" name="LFXC"> F  </i>
   <i type="logical" name="LHARTREE"> T  </i>
   <i type="int" name="IBSE">     0</i>
   <v type="int" name="KPOINT">    -1     0     0     0</v>
   <i type="logical" name="LTCTE"> F  </i>
   <i type="logical" name="LTETE"> F  </i>
   <i type="logical" name="LTRIPLET"> F  </i>
   <i type="logical" name="LFXCEPS"> F  </i>
   <i type="logical" name="LFXHEG"> F  </i>
   <i type="int" name="NATURALO">     2</i>
   <i type="logical" name="L2ORDER"> F  </i>
   <i type="logical" name="LMP2LT"> F  </i>
   <i type="logical" name="LUSEW"> F  </i>
   <i name="ENCUTGW">     -2.00000000</i>
   <i name="ENCUTGWSOFT">     -2.00000000</i>
   <i name="ENCUTLF">     -1.00000000</i>
   <i type="int" name="LMAXMP2">    -1</i>
   <i name="SCISSOR">      0.00000000</i>
   <i type="int" name="NOMEGA">     0</i>
   <i type="int" name="NOMEGAR">     0</i>
   <i type="int" name="NBANDSGW">    -1</i>
   <i type="int" name="NBANDSO">    -1</i>
   <i type="int" name="NBANDSV">    -1</i>
   <i type="int" name="NELM">   200</i>
   <i type="int" name="NELMHF">     1</i>
   <i type="int" name="DIM">     3</i>
   <i type="int" name="ANTIRES">     0</i>
   <i name="OMEGAMAX">    -30.00000000</i>
   <i name="OMEGAMIN">    -30.00000000</i>
   <i name="OMEGATL">   -200.00000000</i>
   <i type="int" name="OMEGAGRID">   140</i>
   <i name="CSHIFT">     -0.10000000</i>
   <i type="logical" name="SELFENERGY"> F  </i>
   <i type="logical" name="LSPECTRAL"> F  </i>
   <i type="logical" name="LSPECTRALGW"> F  </i>
   <i type="logical" name="LSINGLES"> F  </i>
   <i type="logical" name="LFERMIGW"> F  </i>
   <i type="logical" name="ODDONLYGW"> F  </i>
   <i type="logical" name="EVENONLYGW"> F  </i>
   <i type="int" name="NKREDLFX">     1</i>
   <i type="int" name="NKREDLFY">     1</i>
   <i type="int" name="NKREDLFZ">     1</i>
   <i type="int" name="MAXMEM">  2800</i>
   <i type="int" name="TELESCOPE">     0</i>
   <i type="int" name="TAUPAR">     1</i>
   <i type="int" name="OMEGAPAR">    -1</i>
   <i name="LAMBDA">      1.00000000</i>
  </separator>
  <separator name="External order field" >
   <i name="OFIELD_KAPPA">      0.00000000</i>
   <v name="OFIELD_K">      0.00000000      0.00000000      0.00000000</v>
   <i name="OFIELD_Q6_NEAR">      0.00000000</i>
   <i name="OFIELD_Q6_FAR">      0.00000000</i>
   <i name="OFIELD_A">      0.00000000</i>
  </separator>
  <separator name="solvation model" >
   <i type="logical" name="LSOL"> F  </i>
  </separator>
 </parameters>
 <atominfo>
  <atoms>      90 </atoms>
  <types>       4 </types>
  <array name="atoms" >
   <dimension dim="1">ion</dimension>
   <field type="string">element</field>
   <field type="int">atomtype</field>
   <set>
    <rc><c>H </c><c>   1</c></rc>
    <rc><c>H </c><c>   1</c></rc>
    <rc><c>H </c><c>   1</c></rc>
    <rc><c>H </c><c>   1</c></rc>
    <rc><c>H </c><c>   1</c></rc>
    <rc><c>H </c><c>   1</c></rc>
    <rc><c>H </c><c>   1</c></rc>
    <rc><c>H </c><c>   1</c></rc>
    <rc><c>H </c><c>   1</c></rc>
    <rc><c>H </c><c>   1</c></rc>
    <rc><c>H </c><c>   1</c></rc>
    <rc><c>H </c><c>   1</c></rc>
    <rc><c>H </c><c>   1</c></rc>
    <rc><c>H </c><c>   1</c></rc>
    <rc><c>H </c><c>   1</c></rc>
    <rc><c>H </c><c>   1</c></rc>
    <rc><c>H </c><c>   1</c></rc>
    <rc><c>H </c><c>   1</c></rc>
    <rc><c>H </c><c>   1</c></rc>
    <rc><c>H </c><c>   1</c></rc>
    <rc><c>H </c><c>   1</c></rc>
    <rc><c>H </c><c>   1</c></rc>
    <rc><c>H </c><c>   1</c></rc>
    <rc><c>H </c><c>   1</c></rc>
    <rc><c>H </c><c>   1</c></rc>
    <rc><c>H </c><c>   1</c></rc>
    <rc><c>H </c><c>   1</c></rc>
    <rc><c>H </c><c>   1</c></rc>
    <rc><c>H </c><c>   1</c></rc>
    <rc><c>H </c><c>   1</c></rc>
    <rc><c>H </c><c>   1</c></rc>
    <rc><c>H </c><c>   1</c></rc>
    <rc><c>H </c><c>   1</c></rc>
    <rc><c>H </c><c>   1</c></rc>
    <rc><c>H </c><c>   1</c></rc>
    <rc><c>H </c><c>   1</c></rc>
    <rc><c>N </c><c>   2</c></rc>
    <rc><c>N </c><c>   2</c></rc>
    <rc><c>N </c><c>   2</c></rc>
    <rc><c>N </c><c>   2</c></rc>
    <rc><c>N </c><c>   2</c></rc>
    <rc><c>N </c><c>   2</c></rc>
    <rc><c>C </c><c>   3</c></rc>
    <rc><c>C </c><c>   3</c></rc>
    <rc><c>C </c><c>   3</c></rc>
    <rc><c>C </c><c>   3</c></rc>
    <rc><c>C </c><c>   3</c></rc>
    <rc><c>C </c><c>   3</c></rc>
    <rc><c>C </c><c>   3</c></rc>
    <rc><c>C </c><c>   3</c></rc>
    <rc><c>C </c><c>   3</c></rc>
    <rc><c>C </c><c>   3</c></rc>
    <rc><c>C </c><c>   3</c></rc>
    <rc><c>C </c><c>   3</c></rc>
    <rc><c>C </c><c>   3</c></rc>
    <rc><c>C </c><c>   3</c></rc>
    <rc><c>C </c><c>   3</c></rc>
    <rc><c>C </c><c>   3</c></rc>
    <rc><c>C </c><c>   3</c></rc>
    <rc><c>C </c><c>   3</c></rc>
    <rc><c>C </c><c>   3</c></rc>
    <rc><c>C </c><c>   3</c></rc>
    <rc><c>C </c><c>   3</c></rc>
    <rc><c>C </c><c>   3</c></rc>
    <rc><c>C </c><c>   3</c></rc>
    <rc><c>C </c><c>   3</c></rc>
    <rc><c>C </c><c>   3</c></rc>
    <rc><c>C </c><c>   3</c></rc>
    <rc><c>C </c><c>   3</c></rc>
    <rc><c>C </c><c>   3</c></rc>
    <rc><c>C </c><c>   3</c></rc>
    <rc><c>C </c><c>   3</c></rc>
    <rc><c>C </c><c>   3</c></rc>
    <rc><c>C </c><c>   3</c></rc>
    <rc><c>C </c><c>   3</c></rc>
    <rc><c>C </c><c>   3</c></rc>
    <rc><c>C </c><c>   3</c></rc>
    <rc><c>C </c><c>   3</c></rc>
    <rc><c>C </c><c>   3</c></rc>
    <rc><c>C </c><c>   3</c></rc>
    <rc><c>C </c><c>   3</c></rc>
    <rc><c>C </c><c>   3</c></rc>
    <rc><c>C </c><c>   3</c></rc>
    <rc><c>C </c><c>   3</c></rc>
    <rc><c>O </c><c>   4</c></rc>
    <rc><c>O </c><c>   4</c></rc>
    <rc><c>O </c><c>   4</c></rc>
    <rc><c>O </c><c>   4</c></rc>
    <rc><c>O </c><c>   4</c></rc>
    <rc><c>O </c><c>   4</c></rc>
   </set>
  </array>
  <array name="atomtypes" >
   <dimension dim="1">type</dimension>
   <field type="int">atomspertype</field>
   <field type="string">element</field>
   <field>mass</field>
   <field>valence</field>
   <field type="string">pseudopotential</field>
   <set>
    <rc><c>  36</c><c>H </c><c>      1.00000000</c><c>      1.00000000</c><c>  PAW_PBE H 15Jun2001                   </c></rc>
    <rc><c>   6</c><c>N </c><c>     14.00100000</c><c>      5.00000000</c><c>  PAW_PBE N 08Apr2002                   </c></rc>
    <rc><c>  42</c><c>C </c><c>     12.01100000</c><c>      4.00000000</c><c>  PAW_PBE C 08Apr2002                   </c></rc>
    <rc><c>   6</c><c>O </c><c>     16.00000000</c><c>      6.00000000</c><c>  PAW_PBE O 08Apr2002                   </c></rc>
   </set>
  </array>
 </atominfo>
 <structure name="initialpos" >
  <crystal>
   <varray name="basis" >
    <v>      22.42341563       0.00267485       0.00000000 </v>
    <v>     -11.20947929      19.40545913       0.00000000 </v>
    <v>       0.00000000      -0.00000000      20.00000000 </v>
   </varray>
   <i name="volume">   8703.33318478 </i>
   <varray name="rec_basis" >
    <v>       0.04459317       0.02575905       0.00000000 </v>
    <v>      -0.00000615       0.05152834       0.00000000 </v>
    <v>       0.00000000       0.00000000       0.05000000 </v>
   </varray>
  </crystal>
  <varray name="positions" >
   <v>       0.54204462       0.23822699       0.51333766 </v>
   <v>       0.75937468       0.30942636       0.51346490 </v>
   <v>       0.68834642       0.45576548       0.51320526 </v>
   <v>       0.45738406       0.74150408       0.50279075 </v>
   <v>       0.25657717       0.72191265       0.50047599 </v>
   <v>       0.27614772       0.54051853       0.50483443 </v>
   <v>       0.51393785       0.11175406       0.36047396 </v>
   <v>       0.42926003       0.04013527       0.36135562 </v>
   <v>       0.45412906       0.10370751       0.42324885 </v>
   <v>       0.40491875       0.87155668       0.37702159 </v>
   <v>       0.35881781       0.91313887       0.40007022 </v>
   <v>       0.42213044       0.94824492       0.33548482 </v>
   <v>       0.55226789       0.16350277       0.46001025 </v>
   <v>       0.88624757       0.40641643       0.36245495 </v>
   <v>       0.95796147       0.39355915       0.36367790 </v>
   <v>       0.89448230       0.35515398       0.42567530 </v>
   <v>       0.12652414       0.53759831       0.37953675 </v>
   <v>       0.08511747       0.45021273       0.40377106 </v>
   <v>       0.05010234       0.47737604       0.33818755 </v>
   <v>       0.83459864       0.39384816       0.46179549 </v>
   <v>       0.59363384       0.48843083       0.36404836 </v>
   <v>       0.60693989       0.57317533       0.36719073 </v>
   <v>       0.64388389       0.54612714       0.42888488 </v>
   <v>       0.46299448       0.59779256       0.38184780 </v>
   <v>       0.54973302       0.64298980       0.40811376 </v>
   <v>       0.52410364       0.58258018       0.34102204 </v>
   <v>       0.60400087       0.44657254       0.46212525 </v>
   <v>       0.61929247       0.07009566       0.55684915 </v>
   <v>       0.55822032       0.94174337       0.55828642 </v>
   <v>       0.48355472       0.83639502       0.48779756 </v>
   <v>       0.92752350       0.55596057       0.55633222 </v>
   <v>       0.05581155       0.62303954       0.55825587 </v>
   <v>       0.16134220       0.65259271       0.48849334 </v>
   <v>       0.44119316       0.37657558       0.55553694 </v>
   <v>       0.37404841       0.43781660       0.55751003 </v>
   <v>       0.34550876       0.51502599       0.48664572 </v>
   <v>       0.57995457       0.14548828       0.48394384 </v>
   <v>       0.85235612       0.44001033       0.48476547 </v>
   <v>       0.55783833       0.41820449       0.48508247 </v>
   <v>       0.45284365       0.85752037       0.48455919 </v>
   <v>       0.14022741       0.60067196       0.48634336 </v>
   <v>       0.39745947       0.54570676       0.48674683 </v>
   <v>       0.73124850       0.38971380       0.50936488 </v>
   <v>       0.67585394       0.40210057       0.50979732 </v>
   <v>       0.60803467       0.34730669       0.50946735 </v>
   <v>       0.59563441       0.27949161       0.50986320 </v>
   <v>       0.71819125       0.32185456       0.50991972 </v>
   <v>       0.80253434       0.45158184       0.51148561 </v>
   <v>       0.54627220       0.35682410       0.51186642 </v>
   <v>       0.25812600       0.62467147       0.50208129 </v>
   <v>       0.30171295       0.59668722       0.50338838 </v>
   <v>       0.37321109       0.63934380       0.50309610 </v>
   <v>       0.40123210       0.71094386       0.50227399 </v>
   <v>       0.28704541       0.69622228       0.50110954 </v>
   <v>       0.18206201       0.57370994       0.49990126 </v>
   <v>       0.42409850       0.61415594       0.50183102 </v>
   <v>       0.55163617       0.07362186       0.48212056 </v>
   <v>       0.49627297       0.03597328       0.43744852 </v>
   <v>       0.46432414       0.96356598       0.43532602 </v>
   <v>       0.47244474       0.07462850       0.39331895 </v>
   <v>       0.40968754       0.92227072       0.38424347 </v>
   <v>       0.92419185       0.48361697       0.48299185 </v>
   <v>       0.96198105       0.46527013       0.43914389 </v>
   <v>       0.03437999       0.50557216       0.43733004 </v>
   <v>       0.92344059       0.40237743       0.39545758 </v>
   <v>       0.07588900       0.49164659       0.38701417 </v>
   <v>       0.51450500       0.44672944       0.48355911 </v>
   <v>       0.53368754       0.50376966       0.44068223 </v>
   <v>       0.49354374       0.53603385       0.43895773 </v>
   <v>       0.59729844       0.52891038       0.39796689 </v>
   <v>       0.50869080       0.59281109       0.38984949 </v>
   <v>       0.65039727       0.26645328       0.50950162 </v>
   <v>       0.64069759       0.19507795       0.51201133 </v>
   <v>       0.35861686       0.73981244       0.50091966 </v>
   <v>       0.38389587       0.81587198       0.49753278 </v>
   <v>       0.48625960       0.93056950       0.48111442 </v>
   <v>       0.54201016       0.96866713       0.52379611 </v>
   <v>       0.57575495       0.04011309       0.52402147 </v>
   <v>       0.06723095       0.56102432       0.48262217 </v>
   <v>       0.02898113       0.57939016       0.52431285 </v>
   <v>       0.95756260       0.54183083       0.52421479 </v>
   <v>       0.43722653       0.51246038       0.48326127 </v>
   <v>       0.41819794       0.45515408       0.52415329 </v>
   <v>       0.45574494       0.42127082       0.52403783 </v>
   <v>       0.68483237       0.18413259       0.53673958 </v>
   <v>       0.81325431       0.50717319       0.53475510 </v>
   <v>       0.49081354       0.31205206       0.53541709 </v>
   <v>       0.34385053       0.83834477       0.50377933 </v>
   <v>       0.15984518       0.51134320       0.50747903 </v>
   <v>       0.48620211       0.65401148       0.51126764 </v>
  </varray>
 </structure>
 <calculation>
  <scstep>
   <time name="dav">  270.79  273.74</time>
   <time name="total">  270.93  273.88</time>
   <energy>
    <i name="alphaZ">     37.80079214 </i>
    <i name="ewald">  30470.87074468 </i>
    <i name="hartreedc"> -39409.08021177 </i>
    <i name="XCdc">    970.58573791 </i>
    <i name="pawpsdc">  24224.57276719 </i>
    <i name="pawaedc"> -24274.86204098 </i>
    <i name="eentropy">     -0.00000000 </i>
    <i name="bandstr">  -3433.66543684 </i>
    <i name="atom">  10811.09289016 </i>
    <i name="e_fr_energy">   -602.68475752 </i>
    <i name="e_wo_entrp">   -602.68475752 </i>
    <i name="e_0_energy">   -602.68475752 </i>
   </energy>
  </scstep>
  <scstep>
   <time name="dav">  313.52  317.04</time>
   <time name="total">  313.52  317.04</time>
   <energy>
    <i name="e_fr_energy">   -603.35086618 </i>
    <i name="e_wo_entrp">   -603.35086618 </i>
    <i name="e_0_energy">   -603.35086618 </i>
   </energy>
  </scstep>
  <scstep>
   <time name="dav">  344.04  347.73</time>
   <time name="total">  344.04  347.73</time>
   <energy>
    <i name="e_fr_energy">   -603.36957214 </i>
    <i name="e_wo_entrp">   -603.36957214 </i>
    <i name="e_0_energy">   -603.36957214 </i>
   </energy>
  </scstep>
  <scstep>
   <time name="dav">  307.78  311.04</time>
   <time name="total">  307.78  311.05</time>
   <energy>
    <i name="e_fr_energy">   -603.36990721 </i>
    <i name="e_wo_entrp">   -603.36990721 </i>
    <i name="e_0_energy">   -603.36990721 </i>
   </energy>
  </scstep>
  <scstep>
   <time name="dav">  305.01  308.24</time>
   <time name="total">  305.01  308.24</time>
   <energy>
    <i name="e_fr_energy">   -603.36992401 </i>
    <i name="e_wo_entrp">   -603.36992401 </i>
    <i name="e_0_energy">   -603.36992401 </i>
   </energy>
  </scstep>
  <scstep>
   <time name="dav">  243.41  246.00</time>
   <time name="total">  243.41  246.00</time>
   <energy>
    <i name="alphaZ">     37.80079214 </i>
    <i name="ewald">  30470.87074468 </i>
    <i name="hartreedc"> -39409.08021177 </i>
    <i name="XCdc">    970.58573791 </i>
    <i name="pawpsdc">  24224.57276719 </i>
    <i name="pawaedc"> -24274.86204098 </i>
    <i name="eentropy">     -0.00000000 </i>
    <i name="bandstr">  -3434.35060401 </i>
    <i name="atom">  10811.09289016 </i>
    <i name="e_fr_energy">   -603.36992470 </i>
    <i name="e_wo_entrp">   -603.36992470 </i>
    <i name="e_0_energy">   -603.36992470 </i>
   </energy>
  </scstep>
  <structure>
   <crystal>
    <varray name="basis" >
     <v>      22.42341563       0.00267485       0.00000000 </v>
     <v>     -11.20947929      19.40545913       0.00000000 </v>
     <v>       0.00000000      -0.00000000      20.00000000 </v>
    </varray>
    <i name="volume">   8703.33318478 </i>
    <varray name="rec_basis" >
     <v>       0.04459317       0.02575905       0.00000000 </v>
     <v>      -0.00000615       0.05152834       0.00000000 </v>
     <v>       0.00000000       0.00000000       0.05000000 </v>
    </varray>
   </crystal>
   <varray name="positions" >
    <v>       0.54204462       0.23822699       0.51333766 </v>
    <v>       0.75937468       0.30942636       0.51346490 </v>
    <v>       0.68834642       0.45576548       0.51320526 </v>
    <v>       0.45738406       0.74150408       0.50279075 </v>
    <v>       0.25657717       0.72191265       0.50047599 </v>
    <v>       0.27614772       0.54051853       0.50483443 </v>
    <v>       0.51393785       0.11175406       0.36047396 </v>
    <v>       0.42926003       0.04013527       0.36135562 </v>
    <v>       0.45412906       0.10370751       0.42324885 </v>
    <v>       0.40491875       0.87155668       0.37702159 </v>
    <v>       0.35881781       0.91313887       0.40007022 </v>
    <v>       0.42213044       0.94824492       0.33548482 </v>
    <v>       0.55226789       0.16350277       0.46001025 </v>
    <v>       0.88624757       0.40641643       0.36245495 </v>
    <v>       0.95796147       0.39355915       0.36367790 </v>
    <v>       0.89448230       0.35515398       0.42567530 </v>
    <v>       0.12652414       0.53759831       0.37953675 </v>
    <v>       0.08511747       0.45021273       0.40377106 </v>
    <v>       0.05010234       0.47737604       0.33818755 </v>
    <v>       0.83459864       0.39384816       0.46179549 </v>
    <v>       0.59363384       0.48843083       0.36404836 </v>
    <v>       0.60693989       0.57317533       0.36719073 </v>
    <v>       0.64388389       0.54612714       0.42888488 </v>
    <v>       0.46299448       0.59779256       0.38184780 </v>
    <v>       0.54973302       0.64298980       0.40811376 </v>
    <v>       0.52410364       0.58258018       0.34102204 </v>
    <v>       0.60400087       0.44657254       0.46212525 </v>
    <v>       0.61929247       0.07009566       0.55684915 </v>
    <v>       0.55822032       0.94174337       0.55828642 </v>
    <v>       0.48355472       0.83639502       0.48779756 </v>
    <v>       0.92752350       0.55596057       0.55633222 </v>
    <v>       0.05581155       0.62303954       0.55825587 </v>
    <v>       0.16134220       0.65259271       0.48849334 </v>
    <v>       0.44119316       0.37657558       0.55553694 </v>
    <v>       0.37404841       0.43781660       0.55751003 </v>
    <v>       0.34550876       0.51502599       0.48664572 </v>
    <v>       0.57995457       0.14548828       0.48394384 </v>
    <v>       0.85235612       0.44001033       0.48476547 </v>
    <v>       0.55783833       0.41820449       0.48508247 </v>
    <v>       0.45284365       0.85752037       0.48455919 </v>
    <v>       0.14022741       0.60067196       0.48634336 </v>
    <v>       0.39745947       0.54570676       0.48674683 </v>
    <v>       0.73124850       0.38971380       0.50936488 </v>
    <v>       0.67585394       0.40210057       0.50979732 </v>
    <v>       0.60803467       0.34730669       0.50946735 </v>
    <v>       0.59563441       0.27949161       0.50986320 </v>
    <v>       0.71819125       0.32185456       0.50991972 </v>
    <v>       0.80253434       0.45158184       0.51148561 </v>
    <v>       0.54627220       0.35682410       0.51186642 </v>
    <v>       0.25812600       0.62467147       0.50208129 </v>
    <v>       0.30171295       0.59668722       0.50338838 </v>
    <v>       0.37321109       0.63934380       0.50309610 </v>
    <v>       0.40123210       0.71094386       0.50227399 </v>
    <v>       0.28704541       0.69622228       0.50110954 </v>
    <v>       0.18206201       0.57370994       0.49990126 </v>
    <v>       0.42409850       0.61415594       0.50183102 </v>
    <v>       0.55163617       0.07362186       0.48212056 </v>
    <v>       0.49627297       0.03597328       0.43744852 </v>
    <v>       0.46432414       0.96356598       0.43532602 </v>
    <v>       0.47244474       0.07462850       0.39331895 </v>
    <v>       0.40968754       0.92227072       0.38424347 </v>
    <v>       0.92419185       0.48361697       0.48299185 </v>
    <v>       0.96198105       0.46527013       0.43914389 </v>
    <v>       0.03437999       0.50557216       0.43733004 </v>
    <v>       0.92344059       0.40237743       0.39545758 </v>
    <v>       0.07588900       0.49164659       0.38701417 </v>
    <v>       0.51450500       0.44672944       0.48355911 </v>
    <v>       0.53368754       0.50376966       0.44068223 </v>
    <v>       0.49354374       0.53603385       0.43895773 </v>
    <v>       0.59729844       0.52891038       0.39796689 </v>
    <v>       0.50869080       0.59281109       0.38984949 </v>
    <v>       0.65039727       0.26645328       0.50950162 </v>
    <v>       0.64069759       0.19507795       0.51201133 </v>
    <v>       0.35861686       0.73981244       0.50091966 </v>
    <v>       0.38389587       0.81587198       0.49753278 </v>
    <v>       0.48625960       0.93056950       0.48111442 </v>
    <v>       0.54201016       0.96866713       0.52379611 </v>
    <v>       0.57575495       0.04011309       0.52402147 </v>
    <v>       0.06723095       0.56102432       0.48262217 </v>
    <v>       0.02898113       0.57939016       0.52431285 </v>
    <v>       0.95756260       0.54183083       0.52421479 </v>
    <v>       0.43722653       0.51246038       0.48326127 </v>
    <v>       0.41819794       0.45515408       0.52415329 </v>
    <v>       0.45574494       0.42127082       0.52403783 </v>
    <v>       0.68483237       0.18413259       0.53673958 </v>
    <v>       0.81325431       0.50717319       0.53475510 </v>
    <v>       0.49081354       0.31205206       0.53541709 </v>
    <v>       0.34385053       0.83834477       0.50377933 </v>
    <v>       0.15984518       0.51134320       0.50747903 </v>
    <v>       0.48620211       0.65401148       0.51126764 </v>
   </varray>
  </structure>
  <varray name="forces" >
   <v>      -0.00000609       0.00055317      -0.00067044 </v>
   <v>      -0.00013910       0.00046146       0.00218609 </v>
   <v>      -0.00214803       0.00050276       0.00164200 </v>
   <v>      -0.00139600      -0.00189116      -0.00022573 </v>
   <v>      -0.00415442       0.00136779      -0.00111891 </v>
   <v>       0.00103900       0.00095815      -0.00103374 </v>
   <v>      -0.00157708       0.00121152       0.00166495 </v>
   <v>      -0.00013680       0.00058064       0.00128354 </v>
   <v>      -0.00260398       0.00146930       0.00022888 </v>
   <v>      -0.00181668       0.00339100       0.00053946 </v>
   <v>      -0.00000046       0.00135504       0.00079782 </v>
   <v>      -0.00083730       0.00096949      -0.00013702 </v>
   <v>       0.00105294      -0.00136818      -0.00022320 </v>
   <v>      -0.00073141      -0.00302481       0.00223379 </v>
   <v>       0.00019253      -0.00197327       0.00269923 </v>
   <v>       0.00139639       0.00002202       0.00364970 </v>
   <v>      -0.00028352      -0.00219225       0.00080066 </v>
   <v>       0.00290613      -0.00104515       0.00002579 </v>
   <v>      -0.00105244      -0.00168777       0.00281520 </v>
   <v>       0.00128303      -0.00538092      -0.00392959 </v>
   <v>       0.00161716       0.00221015       0.00144039 </v>
   <v>       0.00209906       0.00285951       0.00084348 </v>
   <v>       0.00017482       0.00220371       0.00239912 </v>
   <v>       0.00265704       0.00241210       0.00030874 </v>
   <v>      -0.00160478       0.00122995      -0.00054603 </v>
   <v>       0.00157041       0.00014629       0.00238490 </v>
   <v>      -0.00550108      -0.00441985       0.00255588 </v>
   <v>       0.00113459      -0.00126332       0.00142856 </v>
   <v>      -0.00022482      -0.00180414      -0.00241207 </v>
   <v>      -0.00112831       0.00202610      -0.00271138 </v>
   <v>       0.00146533      -0.00308716      -0.00273774 </v>
   <v>      -0.00092361       0.00037710       0.00498878 </v>
   <v>       0.00067536      -0.00383185      -0.00182677 </v>
   <v>      -0.00060882       0.00062634      -0.00156199 </v>
   <v>       0.00365903       0.00026210      -0.00334342 </v>
   <v>      -0.00058523      -0.00050796      -0.00239874 </v>
   <v>      -0.00557649       0.00311192       0.00313290 </v>
   <v>      -0.00375094       0.00196922       0.00737979 </v>
   <v>      -0.00491160       0.00239851      -0.00092643 </v>
   <v>       0.00519714       0.00156017       0.00116631 </v>
   <v>      -0.00089752      -0.00350469      -0.00439865 </v>
   <v>       0.00155418       0.00038541      -0.00363166 </v>
   <v>       0.00136719       0.00174161       0.00281227 </v>
   <v>       0.00474644      -0.00337691      -0.00058161 </v>
   <v>       0.00123657       0.00132302       0.00038062 </v>
   <v>      -0.00314287      -0.00149075       0.00231148 </v>
   <v>       0.00116825       0.00191289      -0.00212655 </v>
   <v>       0.00649612      -0.00383745       0.00226160 </v>
   <v>      -0.00210855      -0.00006460       0.00372147 </v>
   <v>      -0.00010211       0.00650110      -0.00203081 </v>
   <v>       0.00135738      -0.00292715      -0.00136562 </v>
   <v>       0.00354156       0.00204344       0.00084108 </v>
   <v>       0.00226800      -0.00568718      -0.00130771 </v>
   <v>       0.00059771      -0.00377195       0.00058040 </v>
   <v>       0.00262894       0.00725893      -0.00194880 </v>
   <v>       0.00055784      -0.00050563       0.00266655 </v>
   <v>      -0.00141206      -0.00065311      -0.00288994 </v>
   <v>      -0.00138687      -0.00095235      -0.00034179 </v>
   <v>      -0.00345798       0.00241154      -0.00132030 </v>
   <v>      -0.00240314       0.00248243      -0.00050508 </v>
   <v>       0.00035266       0.00080804       0.00085796 </v>
   <v>       0.00439824      -0.00580971       0.00100867 </v>
   <v>      -0.00201113       0.00286003       0.00161036 </v>
   <v>       0.00040845       0.00034274      -0.00237842 </v>
   <v>       0.00126275       0.00170825       0.00247755 </v>
   <v>       0.00028201      -0.00232583       0.00171049 </v>
   <v>       0.00136190       0.00320954      -0.00034848 </v>
   <v>      -0.00290809       0.00361244       0.00054703 </v>
   <v>       0.00425389      -0.00394065      -0.00079022 </v>
   <v>       0.00176788       0.00025380      -0.00029431 </v>
   <v>       0.00036903       0.00031785       0.00144508 </v>
   <v>      -0.00148777      -0.00044175       0.00044047 </v>
   <v>       0.00119340      -0.00175465       0.00030453 </v>
   <v>      -0.00057393       0.00542498      -0.00147586 </v>
   <v>       0.00279595      -0.00280315      -0.00216630 </v>
   <v>      -0.00074871      -0.00704409      -0.00402892 </v>
   <v>       0.00061986       0.00001871      -0.00317636 </v>
   <v>       0.00185984      -0.00122249      -0.00098803 </v>
   <v>       0.00047913       0.00132463       0.00207726 </v>
   <v>      -0.00015209      -0.00141668      -0.00454010 </v>
   <v>       0.00006541      -0.00036970      -0.00103805 </v>
   <v>      -0.00280860       0.00372789      -0.00434951 </v>
   <v>      -0.00149181      -0.00191631       0.00150062 </v>
   <v>       0.00030023      -0.00433599      -0.00140989 </v>
   <v>      -0.00082330      -0.00009463       0.00224944 </v>
   <v>      -0.00362084       0.00511953      -0.00193151 </v>
   <v>       0.00253278       0.00439026      -0.00330933 </v>
   <v>      -0.00472625       0.00263951      -0.00065625 </v>
   <v>      -0.00116848      -0.00457732       0.00136164 </v>
   <v>      -0.00081247       0.00024844      -0.00062924 </v>
  </varray>
  <varray name="stress" >
   <v>       0.18874392      -0.02506185      -0.00008505 </v>
   <v>      -0.02506185       0.19758998      -0.00302466 </v>
   <v>      -0.00008505      -0.00302466      -0.24500924 </v>
  </varray>
  <energy>
   <i name="e_fr_energy">   -605.26351849 </i>
   <i name="e_wo_entrp">   -605.26351849 </i>
   <i name="e_0_energy">     -0.00000000 </i>
  </energy>
  <time name="totalsc"> 2100.73 2124.07</time>
  <eigenvalues>
   <array>
    <dimension dim="1">band</dimension>
    <dimension dim="2">kpoint</dimension>
    <dimension dim="3">spin</dimension>
    <field>eigene</field>
    <field>occ</field>
    <set>
     <set comment="spin 1">
      <set comment="kpoint 1">
       <r>  -25.8132    1.0000 </r>
       <r>  -25.7972    1.0000 </r>
       <r>  -25.7962    1.0000 </r>
       <r>  -25.7366    1.0000 </r>
       <r>  -25.7217    1.0000 </r>
       <r>  -25.7138    1.0000 </r>
       <r>  -23.4732    1.0000 </r>
       <r>  -23.4693    1.0000 </r>
       <r>  -23.4684    1.0000 </r>
       <r>  -23.1901    1.0000 </r>
       <r>  -23.1875    1.0000 </r>
       <r>  -23.1822    1.0000 </r>
       <r>  -21.7534    1.0000 </r>
       <r>  -21.6817    1.0000 </r>
       <r>  -20.9377    1.0000 </r>
       <r>  -20.9361    1.0000 </r>
       <r>  -20.8164    1.0000 </r>
       <r>  -19.4551    1.0000 </r>
       <r>  -19.4548    1.0000 </r>
       <r>  -19.2341    1.0000 </r>
       <r>  -19.2327    1.0000 </r>
       <r>  -19.1563    1.0000 </r>
       <r>  -19.0399    1.0000 </r>
       <r>  -19.0388    1.0000 </r>
       <r>  -18.6425    1.0000 </r>
       <r>  -18.3500    1.0000 </r>
       <r>  -18.3469    1.0000 </r>
       <r>  -17.3447    1.0000 </r>
       <r>  -17.2946    1.0000 </r>
       <r>  -17.2914    1.0000 </r>
       <r>  -16.6458    1.0000 </r>
       <r>  -16.6450    1.0000 </r>
       <r>  -16.6403    1.0000 </r>
       <r>  -16.2549    1.0000 </r>
       <r>  -16.2532    1.0000 </r>
       <r>  -16.1586    1.0000 </r>
       <r>  -15.7414    1.0000 </r>
       <r>  -15.7401    1.0000 </r>
       <r>  -15.1174    1.0000 </r>
       <r>  -14.9309    1.0000 </r>
       <r>  -14.9282    1.0000 </r>
       <r>  -14.5921    1.0000 </r>
       <r>  -14.5412    1.0000 </r>
       <r>  -14.5375    1.0000 </r>
       <r>  -14.3375    1.0000 </r>
       <r>  -14.3332    1.0000 </r>
       <r>  -14.1076    1.0000 </r>
       <r>  -13.7205    1.0000 </r>
       <r>  -13.4359    1.0000 </r>
       <r>  -13.3504    1.0000 </r>
       <r>  -13.3464    1.0000 </r>
       <r>  -12.8806    1.0000 </r>
       <r>  -12.8789    1.0000 </r>
       <r>  -12.6016    1.0000 </r>
       <r>  -12.5971    1.0000 </r>
       <r>  -12.5379    1.0000 </r>
       <r>  -12.4300    1.0000 </r>
       <r>  -12.1145    1.0000 </r>
       <r>  -11.9193    1.0000 </r>
       <r>  -11.5585    1.0000 </r>
       <r>  -11.5542    1.0000 </r>
       <r>  -11.4540    1.0000 </r>
       <r>  -11.4223    1.0000 </r>
       <r>  -11.2700    1.0000 </r>
       <r>  -11.2662    1.0000 </r>
       <r>  -11.1760    1.0000 </r>
       <r>  -11.1705    1.0000 </r>
       <r>  -11.0889    1.0000 </r>
       <r>  -10.6314    1.0000 </r>
       <r>  -10.6260    1.0000 </r>
       <r>  -10.6139    1.0000 </r>
       <r>  -10.4420    1.0000 </r>
       <r>  -10.2858    1.0000 </r>
       <r>  -10.1625    1.0000 </r>
       <r>  -10.1568    1.0000 </r>
       <r>  -10.0944    1.0000 </r>
       <r>  -10.0906    1.0000 </r>
       <r>  -10.0508    1.0000 </r>
       <r>  -10.0466    1.0000 </r>
       <r>  -10.0316    1.0000 </r>
       <r>  -10.0281    1.0000 </r>
       <r>  -10.0042    1.0000 </r>
       <r>   -9.9090    1.0000 </r>
       <r>   -9.8177    1.0000 </r>
       <r>   -9.8159    1.0000 </r>
       <r>   -9.8037    1.0000 </r>
       <r>   -9.6825    1.0000 </r>
       <r>   -9.6534    1.0000 </r>
       <r>   -9.6497    1.0000 </r>
       <r>   -9.5745    1.0000 </r>
       <r>   -9.5707    1.0000 </r>
       <r>   -9.5566    1.0000 </r>
       <r>   -9.5276    1.0000 </r>
       <r>   -9.5242    1.0000 </r>
       <r>   -9.4707    1.0000 </r>
       <r>   -9.1492    1.0000 </r>
       <r>   -9.0288    1.0000 </r>
       <r>   -8.9473    1.0000 </r>
       <r>   -8.9464    1.0000 </r>
       <r>   -8.7909    1.0000 </r>
       <r>   -8.7875    1.0000 </r>
       <r>   -8.7351    1.0000 </r>
       <r>   -8.7336    1.0000 </r>
       <r>   -8.6760    1.0000 </r>
       <r>   -8.5476    1.0000 </r>
       <r>   -8.5421    1.0000 </r>
       <r>   -8.5214    1.0000 </r>
       <r>   -8.4538    1.0000 </r>
       <r>   -8.4506    1.0000 </r>
       <r>   -8.2210    1.0000 </r>
       <r>   -7.9988    1.0000 </r>
       <r>   -7.9959    1.0000 </r>
       <r>   -7.9516    1.0000 </r>
       <r>   -7.4057    1.0000 </r>
       <r>   -7.4001    1.0000 </r>
       <r>   -7.2881    1.0000 </r>
       <r>   -6.6492    1.0000 </r>
       <r>   -6.6446    1.0000 </r>
       <r>   -6.5935    1.0000 </r>
       <r>   -6.5864    1.0000 </r>
       <r>   -6.3902    1.0000 </r>
       <r>   -6.3310    1.0000 </r>
       <r>   -6.3247    1.0000 </r>
       <r>   -5.9032    1.0000 </r>
       <r>   -5.8844    1.0000 </r>
       <r>   -5.7717    1.0000 </r>
       <r>   -5.7677    1.0000 </r>
       <r>   -5.6792    1.0000 </r>
       <r>   -5.6731    1.0000 </r>
       <r>   -5.6636    1.0000 </r>
       <r>   -5.5641    1.0000 </r>
       <r>   -5.5603    1.0000 </r>
       <r>   -5.0037    1.0000 </r>
       <r>   -4.9810    1.0000 </r>
       <r>   -4.9768    1.0000 </r>
       <r>   -2.4003    0.0000 </r>
       <r>   -2.3925    0.0000 </r>
       <r>   -2.2262    0.0000 </r>
       <r>   -2.2207    0.0000 </r>
       <r>   -1.5364    0.0000 </r>
       <r>   -0.9511    0.0000 </r>
       <r>   -0.9220    0.0000 </r>
       <r>   -0.9202    0.0000 </r>
       <r>   -0.8856    0.0000 </r>
       <r>   -0.7224    0.0000 </r>
       <r>   -0.7202    0.0000 </r>
       <r>   -0.5620    0.0000 </r>
       <r>   -0.3313    0.0000 </r>
       <r>   -0.1825    0.0000 </r>
       <r>   -0.1800    0.0000 </r>
       <r>   -0.0081    0.0000 </r>
       <r>    0.0269    0.0000 </r>
       <r>    0.0300    0.0000 </r>
       <r>    0.1801    0.0000 </r>
       <r>    0.4558    0.0000 </r>
       <r>    0.4670    0.0000 </r>
       <r>    0.4728    0.0000 </r>
       <r>    0.5131    0.0000 </r>
       <r>    0.6026    0.0000 </r>
       <r>    0.6394    0.0000 </r>
       <r>    0.6461    0.0000 </r>
       <r>    0.6907    0.0000 </r>
       <r>    0.6934    0.0000 </r>
       <r>    0.7451    0.0000 </r>
       <r>    0.7469    0.0000 </r>
       <r>    0.7494    0.0000 </r>
       <r>    0.8631    0.0000 </r>
       <r>    0.8664    0.0000 </r>
       <r>    0.8680    0.0000 </r>
       <r>    0.9512    0.0000 </r>
       <r>    1.0340    0.0000 </r>
       <r>    1.0360    0.0000 </r>
       <r>    1.0420    0.0000 </r>
       <r>    1.0672    0.0000 </r>
       <r>    1.0732    0.0000 </r>
       <r>    1.0865    0.0000 </r>
       <r>    1.1033    0.0000 </r>
       <r>    1.1132    0.0000 </r>
       <r>    1.1435    0.0000 </r>
       <r>    1.1936    0.0000 </r>
       <r>    1.2416    0.0000 </r>
       <r>    1.3180    0.0000 </r>
       <r>    1.3243    0.0000 </r>
       <r>    1.3816    0.0000 </r>
       <r>    1.3846    0.0000 </r>
       <r>    1.4304    0.0000 </r>
       <r>    1.4566    0.0000 </r>
       <r>    1.4584    0.0000 </r>
       <r>    1.5333    0.0000 </r>
       <r>    1.5351    0.0000 </r>
       <r>    1.5741    0.0000 </r>
       <r>    1.6196    0.0000 </r>
      </set>
      <set comment="kpoint 2">
       <r>  -25.8132    1.0000 </r>
       <r>  -25.7972    1.0000 </r>
       <r>  -25.7962    1.0000 </r>
       <r>  -25.7366    1.0000 </r>
       <r>  -25.7217    1.0000 </r>
       <r>  -25.7138    1.0000 </r>
       <r>  -23.4732    1.0000 </r>
       <r>  -23.4693    1.0000 </r>
       <r>  -23.4684    1.0000 </r>
       <r>  -23.1901    1.0000 </r>
       <r>  -23.1875    1.0000 </r>
       <r>  -23.1822    1.0000 </r>
       <r>  -21.7534    1.0000 </r>
       <r>  -21.6817    1.0000 </r>
       <r>  -20.9375    1.0000 </r>
       <r>  -20.9361    1.0000 </r>
       <r>  -20.8166    1.0000 </r>
       <r>  -19.4551    1.0000 </r>
       <r>  -19.4544    1.0000 </r>
       <r>  -19.2342    1.0000 </r>
       <r>  -19.2328    1.0000 </r>
       <r>  -19.1563    1.0000 </r>
       <r>  -19.0403    1.0000 </r>
       <r>  -19.0388    1.0000 </r>
       <r>  -18.6417    1.0000 </r>
       <r>  -18.3503    1.0000 </r>
       <r>  -18.3469    1.0000 </r>
       <r>  -17.3446    1.0000 </r>
       <r>  -17.2947    1.0000 </r>
       <r>  -17.2914    1.0000 </r>
       <r>  -16.6458    1.0000 </r>
       <r>  -16.6450    1.0000 </r>
       <r>  -16.6403    1.0000 </r>
       <r>  -16.2548    1.0000 </r>
       <r>  -16.2532    1.0000 </r>
       <r>  -16.1588    1.0000 </r>
       <r>  -15.7413    1.0000 </r>
       <r>  -15.7394    1.0000 </r>
       <r>  -15.1195    1.0000 </r>
       <r>  -14.9303    1.0000 </r>
       <r>  -14.9273    1.0000 </r>
       <r>  -14.5922    1.0000 </r>
       <r>  -14.5410    1.0000 </r>
       <r>  -14.5373    1.0000 </r>
       <r>  -14.3377    1.0000 </r>
       <r>  -14.3332    1.0000 </r>
       <r>  -14.1071    1.0000 </r>
       <r>  -13.7210    1.0000 </r>
       <r>  -13.4359    1.0000 </r>
       <r>  -13.3505    1.0000 </r>
       <r>  -13.3465    1.0000 </r>
       <r>  -12.8803    1.0000 </r>
       <r>  -12.8788    1.0000 </r>
       <r>  -12.6018    1.0000 </r>
       <r>  -12.5971    1.0000 </r>
       <r>  -12.5378    1.0000 </r>
       <r>  -12.4300    1.0000 </r>
       <r>  -12.1144    1.0000 </r>
       <r>  -11.9195    1.0000 </r>
       <r>  -11.5584    1.0000 </r>
       <r>  -11.5542    1.0000 </r>
       <r>  -11.4540    1.0000 </r>
       <r>  -11.4223    1.0000 </r>
       <r>  -11.2701    1.0000 </r>
       <r>  -11.2662    1.0000 </r>
       <r>  -11.1760    1.0000 </r>
       <r>  -11.1705    1.0000 </r>
       <r>  -11.0889    1.0000 </r>
       <r>  -10.6315    1.0000 </r>
       <r>  -10.6261    1.0000 </r>
       <r>  -10.6138    1.0000 </r>
       <r>  -10.4420    1.0000 </r>
       <r>  -10.2860    1.0000 </r>
       <r>  -10.1622    1.0000 </r>
       <r>  -10.1568    1.0000 </r>
       <r>  -10.0944    1.0000 </r>
       <r>  -10.0906    1.0000 </r>
       <r>  -10.0509    1.0000 </r>
       <r>  -10.0466    1.0000 </r>
       <r>  -10.0320    1.0000 </r>
       <r>  -10.0283    1.0000 </r>
       <r>  -10.0037    1.0000 </r>
       <r>   -9.9090    1.0000 </r>
       <r>   -9.8178    1.0000 </r>
       <r>   -9.8161    1.0000 </r>
       <r>   -9.8033    1.0000 </r>
       <r>   -9.6827    1.0000 </r>
       <r>   -9.6533    1.0000 </r>
       <r>   -9.6498    1.0000 </r>
       <r>   -9.5745    1.0000 </r>
       <r>   -9.5707    1.0000 </r>
       <r>   -9.5566    1.0000 </r>
       <r>   -9.5276    1.0000 </r>
       <r>   -9.5242    1.0000 </r>
       <r>   -9.4706    1.0000 </r>
       <r>   -9.1492    1.0000 </r>
       <r>   -9.0291    1.0000 </r>
       <r>   -8.9471    1.0000 </r>
       <r>   -8.9461    1.0000 </r>
       <r>   -8.7910    1.0000 </r>
       <r>   -8.7875    1.0000 </r>
       <r>   -8.7356    1.0000 </r>
       <r>   -8.7336    1.0000 </r>
       <r>   -8.6758    1.0000 </r>
       <r>   -8.5481    1.0000 </r>
       <r>   -8.5421    1.0000 </r>
       <r>   -8.5210    1.0000 </r>
       <r>   -8.4538    1.0000 </r>
       <r>   -8.4501    1.0000 </r>
       <r>   -8.2213    1.0000 </r>
       <r>   -7.9988    1.0000 </r>
       <r>   -7.9959    1.0000 </r>
       <r>   -7.9516    1.0000 </r>
       <r>   -7.4056    1.0000 </r>
       <r>   -7.4001    1.0000 </r>
       <r>   -7.2882    1.0000 </r>
       <r>   -6.6492    1.0000 </r>
       <r>   -6.6446    1.0000 </r>
       <r>   -6.5935    1.0000 </r>
       <r>   -6.5864    1.0000 </r>
       <r>   -6.3901    1.0000 </r>
       <r>   -6.3310    1.0000 </r>
       <r>   -6.3247    1.0000 </r>
       <r>   -5.9031    1.0000 </r>
       <r>   -5.8844    1.0000 </r>
       <r>   -5.7716    1.0000 </r>
       <r>   -5.7677    1.0000 </r>
       <r>   -5.6800    1.0000 </r>
       <r>   -5.6731    1.0000 </r>
       <r>   -5.6627    1.0000 </r>
       <r>   -5.5642    1.0000 </r>
       <r>   -5.5603    1.0000 </r>
       <r>   -5.0037    1.0000 </r>
       <r>   -4.9810    1.0000 </r>
       <r>   -4.9768    1.0000 </r>
       <r>   -2.4002    0.0000 </r>
       <r>   -2.3925    0.0000 </r>
       <r>   -2.2265    0.0000 </r>
       <r>   -2.2207    0.0000 </r>
       <r>   -1.5358    0.0000 </r>
       <r>   -0.9536    0.0000 </r>
       <r>   -0.9212    0.0000 </r>
       <r>   -0.9200    0.0000 </r>
       <r>   -0.8858    0.0000 </r>
       <r>   -0.7224    0.0000 </r>
       <r>   -0.7187    0.0000 </r>
       <r>   -0.5618    0.0000 </r>
       <r>   -0.3319    0.0000 </r>
       <r>   -0.1819    0.0000 </r>
       <r>   -0.1799    0.0000 </r>
       <r>   -0.0092    0.0000 </r>
       <r>    0.0269    0.0000 </r>
       <r>    0.0308    0.0000 </r>
       <r>    0.1803    0.0000 </r>
       <r>    0.4553    0.0000 </r>
       <r>    0.4653    0.0000 </r>
       <r>    0.4728    0.0000 </r>
       <r>    0.5147    0.0000 </r>
       <r>    0.6021    0.0000 </r>
       <r>    0.6395    0.0000 </r>
       <r>    0.6465    0.0000 </r>
       <r>    0.6905    0.0000 </r>
       <r>    0.6931    0.0000 </r>
       <r>    0.7422    0.0000 </r>
       <r>    0.7473    0.0000 </r>
       <r>    0.7521    0.0000 </r>
       <r>    0.8559    0.0000 </r>
       <r>    0.8660    0.0000 </r>
       <r>    0.8765    0.0000 </r>
       <r>    0.9515    0.0000 </r>
       <r>    1.0310    0.0000 </r>
       <r>    1.0368    0.0000 </r>
       <r>    1.0426    0.0000 </r>
       <r>    1.0664    0.0000 </r>
       <r>    1.0738    0.0000 </r>
       <r>    1.0869    0.0000 </r>
       <r>    1.1049    0.0000 </r>
       <r>    1.1134    0.0000 </r>
       <r>    1.1441    0.0000 </r>
       <r>    1.1941    0.0000 </r>
       <r>    1.2419    0.0000 </r>
       <r>    1.3169    0.0000 </r>
       <r>    1.3236    0.0000 </r>
       <r>    1.3805    0.0000 </r>
       <r>    1.3822    0.0000 </r>
       <r>    1.4321    0.0000 </r>
       <r>    1.4579    0.0000 </r>
       <r>    1.4591    0.0000 </r>
       <r>    1.5329    0.0000 </r>
       <r>    1.5350    0.0000 </r>
       <r>    1.5746    0.0000 </r>
       <r>    1.6198    0.0000 </r>
      </set>
      <set comment="kpoint 3">
       <r>  -25.8132    1.0000 </r>
       <r>  -25.7972    1.0000 </r>
       <r>  -25.7962    1.0000 </r>
       <r>  -25.7366    1.0000 </r>
       <r>  -25.7217    1.0000 </r>
       <r>  -25.7138    1.0000 </r>
       <r>  -23.4732    1.0000 </r>
       <r>  -23.4693    1.0000 </r>
       <r>  -23.4684    1.0000 </r>
       <r>  -23.1901    1.0000 </r>
       <r>  -23.1875    1.0000 </r>
       <r>  -23.1822    1.0000 </r>
       <r>  -21.7533    1.0000 </r>
       <r>  -21.6819    1.0000 </r>
       <r>  -20.9371    1.0000 </r>
       <r>  -20.9360    1.0000 </r>
       <r>  -20.8172    1.0000 </r>
       <r>  -19.4550    1.0000 </r>
       <r>  -19.4534    1.0000 </r>
       <r>  -19.2348    1.0000 </r>
       <r>  -19.2328    1.0000 </r>
       <r>  -19.1562    1.0000 </r>
       <r>  -19.0419    1.0000 </r>
       <r>  -19.0388    1.0000 </r>
       <r>  -18.6396    1.0000 </r>
       <r>  -18.3512    1.0000 </r>
       <r>  -18.3469    1.0000 </r>
       <r>  -17.3444    1.0000 </r>
       <r>  -17.2950    1.0000 </r>
       <r>  -17.2915    1.0000 </r>
       <r>  -16.6459    1.0000 </r>
       <r>  -16.6450    1.0000 </r>
       <r>  -16.6402    1.0000 </r>
       <r>  -16.2547    1.0000 </r>
       <r>  -16.2531    1.0000 </r>
       <r>  -16.1596    1.0000 </r>
       <r>  -15.7413    1.0000 </r>
       <r>  -15.7371    1.0000 </r>
       <r>  -15.1256    1.0000 </r>
       <r>  -14.9298    1.0000 </r>
       <r>  -14.9236    1.0000 </r>
       <r>  -14.5925    1.0000 </r>
       <r>  -14.5407    1.0000 </r>
       <r>  -14.5368    1.0000 </r>
       <r>  -14.3381    1.0000 </r>
       <r>  -14.3333    1.0000 </r>
       <r>  -14.1056    1.0000 </r>
       <r>  -13.7225    1.0000 </r>
       <r>  -13.4359    1.0000 </r>
       <r>  -13.3509    1.0000 </r>
       <r>  -13.3466    1.0000 </r>
       <r>  -12.8797    1.0000 </r>
       <r>  -12.8782    1.0000 </r>
       <r>  -12.6024    1.0000 </r>
       <r>  -12.5971    1.0000 </r>
       <r>  -12.5377    1.0000 </r>
       <r>  -12.4299    1.0000 </r>
       <r>  -12.1139    1.0000 </r>
       <r>  -11.9202    1.0000 </r>
       <r>  -11.5581    1.0000 </r>
       <r>  -11.5541    1.0000 </r>
       <r>  -11.4541    1.0000 </r>
       <r>  -11.4224    1.0000 </r>
       <r>  -11.2701    1.0000 </r>
       <r>  -11.2662    1.0000 </r>
       <r>  -11.1760    1.0000 </r>
       <r>  -11.1705    1.0000 </r>
       <r>  -11.0889    1.0000 </r>
       <r>  -10.6316    1.0000 </r>
       <r>  -10.6262    1.0000 </r>
       <r>  -10.6135    1.0000 </r>
       <r>  -10.4421    1.0000 </r>
       <r>  -10.2866    1.0000 </r>
       <r>  -10.1616    1.0000 </r>
       <r>  -10.1567    1.0000 </r>
       <r>  -10.0943    1.0000 </r>
       <r>  -10.0907    1.0000 </r>
       <r>  -10.0511    1.0000 </r>
       <r>  -10.0466    1.0000 </r>
       <r>  -10.0331    1.0000 </r>
       <r>  -10.0286    1.0000 </r>
       <r>  -10.0022    1.0000 </r>
       <r>   -9.9089    1.0000 </r>
       <r>   -9.8183    1.0000 </r>
       <r>   -9.8165    1.0000 </r>
       <r>   -9.8022    1.0000 </r>
       <r>   -9.6833    1.0000 </r>
       <r>   -9.6530    1.0000 </r>
       <r>   -9.6498    1.0000 </r>
       <r>   -9.5745    1.0000 </r>
       <r>   -9.5707    1.0000 </r>
       <r>   -9.5565    1.0000 </r>
       <r>   -9.5278    1.0000 </r>
       <r>   -9.5243    1.0000 </r>
       <r>   -9.4706    1.0000 </r>
       <r>   -9.1492    1.0000 </r>
       <r>   -9.0297    1.0000 </r>
       <r>   -8.9466    1.0000 </r>
       <r>   -8.9452    1.0000 </r>
       <r>   -8.7912    1.0000 </r>
       <r>   -8.7876    1.0000 </r>
       <r>   -8.7369    1.0000 </r>
       <r>   -8.7335    1.0000 </r>
       <r>   -8.6750    1.0000 </r>
       <r>   -8.5495    1.0000 </r>
       <r>   -8.5422    1.0000 </r>
       <r>   -8.5200    1.0000 </r>
       <r>   -8.4539    1.0000 </r>
       <r>   -8.4486    1.0000 </r>
       <r>   -8.2221    1.0000 </r>
       <r>   -7.9988    1.0000 </r>
       <r>   -7.9959    1.0000 </r>
       <r>   -7.9517    1.0000 </r>
       <r>   -7.4052    1.0000 </r>
       <r>   -7.4000    1.0000 </r>
       <r>   -7.2886    1.0000 </r>
       <r>   -6.6492    1.0000 </r>
       <r>   -6.6446    1.0000 </r>
       <r>   -6.5934    1.0000 </r>
       <r>   -6.5864    1.0000 </r>
       <r>   -6.3900    1.0000 </r>
       <r>   -6.3311    1.0000 </r>
       <r>   -6.3248    1.0000 </r>
       <r>   -5.9031    1.0000 </r>
       <r>   -5.8845    1.0000 </r>
       <r>   -5.7713    1.0000 </r>
       <r>   -5.7677    1.0000 </r>
       <r>   -5.6821    1.0000 </r>
       <r>   -5.6732    1.0000 </r>
       <r>   -5.6605    1.0000 </r>
       <r>   -5.5644    1.0000 </r>
       <r>   -5.5603    1.0000 </r>
       <r>   -5.0036    1.0000 </r>
       <r>   -4.9810    1.0000 </r>
       <r>   -4.9768    1.0000 </r>
       <r>   -2.3997    0.0000 </r>
       <r>   -2.3924    0.0000 </r>
       <r>   -2.2275    0.0000 </r>
       <r>   -2.2206    0.0000 </r>
       <r>   -1.5342    0.0000 </r>
       <r>   -0.9604    0.0000 </r>
       <r>   -0.9206    0.0000 </r>
       <r>   -0.9185    0.0000 </r>
       <r>   -0.8862    0.0000 </r>
       <r>   -0.7224    0.0000 </r>
       <r>   -0.7142    0.0000 </r>
       <r>   -0.5612    0.0000 </r>
       <r>   -0.3337    0.0000 </r>
       <r>   -0.1813    0.0000 </r>
       <r>   -0.1787    0.0000 </r>
       <r>   -0.0124    0.0000 </r>
       <r>    0.0269    0.0000 </r>
       <r>    0.0332    0.0000 </r>
       <r>    0.1808    0.0000 </r>
       <r>    0.4532    0.0000 </r>
       <r>    0.4610    0.0000 </r>
       <r>    0.4728    0.0000 </r>
       <r>    0.5189    0.0000 </r>
       <r>    0.6007    0.0000 </r>
       <r>    0.6397    0.0000 </r>
       <r>    0.6477    0.0000 </r>
       <r>    0.6897    0.0000 </r>
       <r>    0.6925    0.0000 </r>
       <r>    0.7386    0.0000 </r>
       <r>    0.7471    0.0000 </r>
       <r>    0.7565    0.0000 </r>
       <r>    0.8476    0.0000 </r>
       <r>    0.8663    0.0000 </r>
       <r>    0.8875    0.0000 </r>
       <r>    0.9525    0.0000 </r>
       <r>    1.0265    0.0000 </r>
       <r>    1.0356    0.0000 </r>
       <r>    1.0441    0.0000 </r>
       <r>    1.0648    0.0000 </r>
       <r>    1.0752    0.0000 </r>
       <r>    1.0877    0.0000 </r>
       <r>    1.1086    0.0000 </r>
       <r>    1.1148    0.0000 </r>
       <r>    1.1460    0.0000 </r>
       <r>    1.1951    0.0000 </r>
       <r>    1.2432    0.0000 </r>
       <r>    1.3135    0.0000 </r>
       <r>    1.3215    0.0000 </r>
       <r>    1.3761    0.0000 </r>
       <r>    1.3777    0.0000 </r>
       <r>    1.4355    0.0000 </r>
       <r>    1.4606    0.0000 </r>
       <r>    1.4623    0.0000 </r>
       <r>    1.5312    0.0000 </r>
       <r>    1.5357    0.0000 </r>
       <r>    1.5760    0.0000 </r>
       <r>    1.6203    0.0000 </r>
      </set>
      <set comment="kpoint 4">
       <r>  -25.8132    1.0000 </r>
       <r>  -25.7972    1.0000 </r>
       <r>  -25.7962    1.0000 </r>
       <r>  -25.7366    1.0000 </r>
       <r>  -25.7217    1.0000 </r>
       <r>  -25.7138    1.0000 </r>
       <r>  -23.4732    1.0000 </r>
       <r>  -23.4693    1.0000 </r>
       <r>  -23.4684    1.0000 </r>
       <r>  -23.1901    1.0000 </r>
       <r>  -23.1875    1.0000 </r>
       <r>  -23.1822    1.0000 </r>
       <r>  -21.7531    1.0000 </r>
       <r>  -21.6821    1.0000 </r>
       <r>  -20.9365    1.0000 </r>
       <r>  -20.9356    1.0000 </r>
       <r>  -20.8181    1.0000 </r>
       <r>  -19.4550    1.0000 </r>
       <r>  -19.4517    1.0000 </r>
       <r>  -19.2359    1.0000 </r>
       <r>  -19.2329    1.0000 </r>
       <r>  -19.1562    1.0000 </r>
       <r>  -19.0443    1.0000 </r>
       <r>  -19.0389    1.0000 </r>
       <r>  -18.6361    1.0000 </r>
       <r>  -18.3528    1.0000 </r>
       <r>  -18.3470    1.0000 </r>
       <r>  -17.3441    1.0000 </r>
       <r>  -17.2954    1.0000 </r>
       <r>  -17.2915    1.0000 </r>
       <r>  -16.6460    1.0000 </r>
       <r>  -16.6449    1.0000 </r>
       <r>  -16.6402    1.0000 </r>
       <r>  -16.2546    1.0000 </r>
       <r>  -16.2529    1.0000 </r>
       <r>  -16.1609    1.0000 </r>
       <r>  -15.7413    1.0000 </r>
       <r>  -15.7333    1.0000 </r>
       <r>  -15.1351    1.0000 </r>
       <r>  -14.9296    1.0000 </r>
       <r>  -14.9174    1.0000 </r>
       <r>  -14.5931    1.0000 </r>
       <r>  -14.5406    1.0000 </r>
       <r>  -14.5355    1.0000 </r>
       <r>  -14.3388    1.0000 </r>
       <r>  -14.3333    1.0000 </r>
       <r>  -14.1030    1.0000 </r>
       <r>  -13.7251    1.0000 </r>
       <r>  -13.4359    1.0000 </r>
       <r>  -13.3516    1.0000 </r>
       <r>  -13.3469    1.0000 </r>
       <r>  -12.8793    1.0000 </r>
       <r>  -12.8767    1.0000 </r>
       <r>  -12.6034    1.0000 </r>
       <r>  -12.5972    1.0000 </r>
       <r>  -12.5374    1.0000 </r>
       <r>  -12.4297    1.0000 </r>
       <r>  -12.1131    1.0000 </r>
       <r>  -11.9213    1.0000 </r>
       <r>  -11.5576    1.0000 </r>
       <r>  -11.5541    1.0000 </r>
       <r>  -11.4543    1.0000 </r>
       <r>  -11.4224    1.0000 </r>
       <r>  -11.2702    1.0000 </r>
       <r>  -11.2661    1.0000 </r>
       <r>  -11.1760    1.0000 </r>
       <r>  -11.1705    1.0000 </r>
       <r>  -11.0889    1.0000 </r>
       <r>  -10.6317    1.0000 </r>
       <r>  -10.6265    1.0000 </r>
       <r>  -10.6130    1.0000 </r>
[...]
       <r>   -24.8713     0.0000    12.0000 </r>
       <r>   -24.7707     0.0000    12.0000 </r>
       <r>   -24.6701     0.0000    12.0000 </r>
       <r>   -24.5695     0.0000    12.0000 </r>
       <r>   -24.4689     0.0000    12.0000 </r>
       <r>   -24.3683     0.0000    12.0000 </r>
       <r>   -24.2677     0.0000    12.0000 </r>
       <r>   -24.1671     0.0000    12.0000 </r>
       <r>   -24.0666     0.0000    12.0000 </r>
       <r>   -23.9660     0.0000    12.0000 </r>
       <r>   -23.8654     0.0000    12.0000 </r>
       <r>   -23.7648     0.0000    12.0000 </r>
       <r>   -23.6642     0.0000    12.0000 </r>
       <r>   -23.5636     0.0000    12.0000 </r>
       <r>   -23.4630    50.0144    17.0310 </r>
       <r>   -23.3624     0.0000    18.0000 </r>
       <r>   -23.2618     0.0000    18.0000 </r>
       <r>   -23.1612    59.6148    23.9967 </r>
       <r>   -23.0607     0.0000    24.0000 </r>
       <r>   -22.9601     0.0000    24.0000 </r>
       <r>   -22.8595     0.0000    24.0000 </r>
       <r>   -22.7589     0.0000    24.0000 </r>
       <r>   -22.6583     0.0000    24.0000 </r>
       <r>   -22.5577     0.0000    24.0000 </r>
       <r>   -22.4571     0.0000    24.0000 </r>
       <r>   -22.3565     0.0000    24.0000 </r>
       <r>   -22.2559     0.0000    24.0000 </r>
       <r>   -22.1553     0.0000    24.0000 </r>
       <r>   -22.0548     0.0000    24.0000 </r>
       <r>   -21.9542     0.0000    24.0000 </r>
       <r>   -21.8536     0.0000    24.0000 </r>
       <r>   -21.7530     6.0657    24.6102 </r>
       <r>   -21.6524    19.8826    28.0000 </r>
       <r>   -21.5518     0.0000    28.0000 </r>
       <r>   -21.4512     0.0000    28.0000 </r>
       <r>   -21.3506     0.0000    28.0000 </r>
       <r>   -21.2500     0.0000    28.0000 </r>
       <r>   -21.1494     0.0000    28.0000 </r>
       <r>   -21.0489     0.0000    28.0000 </r>
       <r>   -20.9483     1.1340    28.1141 </r>
       <r>   -20.8477    25.1448    33.0294 </r>
       <r>   -20.7471     4.9700    34.0000 </r>
       <r>   -20.6465     0.0000    34.0000 </r>
       <r>   -20.5459     0.0000    34.0000 </r>
       <r>   -20.4453     0.0000    34.0000 </r>
       <r>   -20.3447     0.0000    34.0000 </r>
       <r>   -20.2441     0.0000    34.0000 </r>
       <r>   -20.1435     0.0000    34.0000 </r>
       <r>   -20.0430     0.0000    34.0000 </r>
       <r>   -19.9424     0.0000    34.0000 </r>
       <r>   -19.8418     0.0000    34.0000 </r>
       <r>   -19.7412     0.0000    34.0000 </r>
       <r>   -19.6406     0.0000    34.0000 </r>
       <r>   -19.5400     0.0000    34.0000 </r>
       <r>   -19.4394    24.0023    36.4144 </r>
       <r>   -19.3388    12.9130    37.9990 </r>
       <r>   -19.2382    21.9438    40.2074 </r>
       <r>   -19.1376    19.6964    43.9813 </r>
       <r>   -19.0371    31.1050    47.1289 </r>
       <r>   -18.9365     0.0000    48.0000 </r>
       <r>   -18.8359     0.0000    48.0000 </r>
       <r>   -18.7353     0.0000    48.0000 </r>
       <r>   -18.6347     2.1649    48.2178 </r>
       <r>   -18.5341     5.5862    48.9953 </r>
       <r>   -18.4335    10.1032    50.4497 </r>
       <r>   -18.3329    29.4230    53.9597 </r>
       <r>   -18.2323     0.0000    54.0000 </r>
       <r>   -18.1317     0.0000    54.0000 </r>
       <r>   -18.0312     0.0000    54.0000 </r>
       <r>   -17.9306     0.0000    54.0000 </r>
       <r>   -17.8300     0.0000    54.0000 </r>
       <r>   -17.7294     0.0000    54.0000 </r>
       <r>   -17.6288     0.0000    54.0000 </r>
       <r>   -17.5282     0.0000    54.0000 </r>
       <r>   -17.4276     0.0000    54.0000 </r>
       <r>   -17.3270    15.2705    55.5361 </r>
       <r>   -17.2264    28.1657    60.0000 </r>
       <r>   -17.1258     0.0000    60.0000 </r>
       <r>   -17.0252     0.0000    60.0000 </r>
       <r>   -16.9247     0.0000    60.0000 </r>
       <r>   -16.8241     0.0000    60.0000 </r>
       <r>   -16.7235     0.0000    60.0000 </r>
       <r>   -16.6229    59.4337    65.9784 </r>
       <r>   -16.5223     0.0000    66.0000 </r>
       <r>   -16.4217     0.0000    66.0000 </r>
       <r>   -16.3211     0.0000    66.0000 </r>
       <r>   -16.2205    39.7187    69.9953 </r>
       <r>   -16.1199    13.2513    72.0000 </r>
       <r>   -16.0193     0.0000    72.0000 </r>
       <r>   -15.9188     0.0000    72.0000 </r>
       <r>   -15.8182     0.0000    72.0000 </r>
       <r>   -15.7176    23.5663    74.3705 </r>
       <r>   -15.6170     4.2671    74.9293 </r>
       <r>   -15.5164     9.6096    76.0000 </r>
       <r>   -15.4158     0.4031    76.0405 </r>
       <r>   -15.3152     7.7779    77.1157 </r>
       <r>   -15.2146     2.5984    77.4614 </r>
       <r>   -15.1140     4.2671    77.9626 </r>
       <r>   -15.0134     0.0000    78.0000 </r>
       <r>   -14.9129    22.0816    80.2212 </r>
       <r>   -14.8123    14.1275    81.8211 </r>
       <r>   -14.7117     0.0000    82.0000 </r>
       <r>   -14.6111     2.3284    82.2342 </r>
       <r>   -14.5105    26.2737    86.6429 </r>
       <r>   -14.4099    10.9502    88.0015 </r>
       <r>   -14.3093    36.4809    91.9697 </r>
       <r>   -14.2087     0.0000    92.0000 </r>
       <r>   -14.1081     1.0311    92.1037 </r>
       <r>   -14.0075     6.6707    93.1044 </r>
       <r>   -13.9070     3.3132    94.0000 </r>
       <r>   -13.8064    10.8373    95.0901 </r>
       <r>   -13.7058     7.5918    95.9970 </r>
       <r>   -13.6052     0.0000    96.0000 </r>
       <r>   -13.5046     0.0000    96.0000 </r>
       <r>   -13.4040    19.7795    97.9896 </r>
       <r>   -13.3034    36.1116   102.0000 </r>
       <r>   -13.2028     0.0000   102.0000 </r>
       <r>   -13.1022     0.0000   102.0000 </r>
       <r>   -13.0016     0.0000   102.0000 </r>
       <r>   -12.9011     0.0098   102.0010 </r>
       <r>   -12.8005    39.0773   105.9983 </r>
       <r>   -12.6999     0.0000   106.0000 </r>
       <r>   -12.5993    27.8318   108.7996 </r>
       <r>   -12.4987    19.8826   112.0000 </r>
       <r>   -12.3981    19.8815   113.9999 </r>
       <r>   -12.2975     0.0000   114.0000 </r>
       <r>   -12.1969     0.0000   114.0000 </r>
       <r>   -12.0963     7.8309   114.7877 </r>
       <r>   -11.9957     0.0000   116.0000 </r>
       <r>   -11.8952    19.8820   117.9999 </r>
       <r>   -11.7946     0.0000   118.0000 </r>
       <r>   -11.6940     0.0000   118.0000 </r>
       <r>   -11.5934     0.0000   118.0000 </r>
       <r>   -11.4928    39.7654   122.0000 </r>
       <r>   -11.3922    39.7651   126.0000 </r>
       <r>   -11.2916     0.0387   126.0039 </r>
       <r>   -11.1910    32.4005   130.0278 </r>
       <r>   -11.0904    26.3345   134.9180 </r>
       <r>   -10.9898     0.0000   136.0000 </r>
       <r>   -10.8892     0.0000   136.0000 </r>
       <r>   -10.7887     0.0000   136.0000 </r>
       <r>   -10.6881     0.0000   136.0000 </r>
       <r>   -10.5875    59.5549   141.9906 </r>
       <r>   -10.4869     0.0000   142.0000 </r>
       <r>   -10.3863    19.8827   144.0000 </r>
       <r>   -10.2857    18.0100   145.8116 </r>
       <r>   -10.1851     0.0039   146.0004 </r>
       <r>   -10.0845    74.2316   153.4674 </r>
       <r>    -9.9839    73.2753   162.5712 </r>
       <r>    -9.8833    19.8765   165.9994 </r>
       <r>    -9.7828    51.9349   171.2241 </r>
       <r>    -9.6822    18.0554   173.8162 </r>
       <r>    -9.5816    44.6326   178.4897 </r>
       <r>    -9.4810    60.3830   188.0740 </r>
       <r>    -9.3804     0.0000   190.0000 </r>
       <r>    -9.2798     0.0000   190.0000 </r>
       <r>    -9.1792     0.0002   190.0000 </r>
       <r>    -9.0786    19.8849   192.0002 </r>
       <r>    -8.9780    19.8803   194.0000 </r>
       <r>    -8.8774    35.0167   197.5223 </r>
       <r>    -8.7769    39.2639   201.9496 </r>
       <r>    -8.6763    43.5411   206.6806 </r>
       <r>    -8.5757     0.4565   208.0459 </r>
       <r>    -8.4751    43.1563   214.0079 </r>
       <r>    -8.3745    14.0969   216.9853 </r>
       <r>    -8.2739    13.4239   218.9170 </r>
       <r>    -8.1733     7.2901   220.0000 </r>
       <r>    -8.0727     0.0000   220.0000 </r>
       <r>    -7.9721    39.8924   224.0128 </r>
       <r>    -7.8715     0.0000   226.0000 </r>
       <r>    -7.7710     0.0000   226.0000 </r>
       <r>    -7.6704     0.0000   226.0000 </r>
       <r>    -7.5698     0.0000   226.0000 </r>
       <r>    -7.4692     0.0000   226.0000 </r>
       <r>    -7.3686    35.7481   229.5959 </r>
       <r>    -7.2680    19.8768   231.9994 </r>
       <r>    -7.1674     0.0000   232.0000 </r>
       <r>    -7.0668     0.0000   232.0000 </r>
       <r>    -6.9662     0.0000   232.0000 </r>
       <r>    -6.8656     0.0000   232.0000 </r>
       <r>    -6.7651     0.0000   232.0000 </r>
       <r>    -6.6645     0.3463   232.0348 </r>
       <r>    -6.5639    42.7305   239.9988 </r>
       <r>    -6.4633     0.0000   240.0000 </r>
       <r>    -6.3627    19.8449   241.9962 </r>
       <r>    -6.2621    39.7637   246.0000 </r>
       <r>    -6.1615     0.0000   246.0000 </r>
       <r>    -6.0609     0.0000   246.0000 </r>
       <r>    -5.9603     0.0000   246.0000 </r>
       <r>    -5.8597    39.7643   249.9999 </r>
       <r>    -5.7592    26.5595   252.6716 </r>
       <r>    -5.6586    41.0839   258.1327 </r>
       <r>    -5.5580    47.4481   263.3395 </r>
       <r>    -5.4574     0.0000   264.0000 </r>
       <r>    -5.3568     0.0000   264.0000 </r>
       <r>    -5.2562     0.0000   264.0000 </r>
       <r>    -5.1556     0.0000   264.0000 </r>
       <r>    -5.0550     0.0000   264.0000 </r>
       <r>    -4.9544    59.6372   269.9989 </r>
       <r>    -4.8538     0.0000   270.0000 </r>
       <r>    -4.7533     0.0000   270.0000 </r>
       <r>    -4.6527     0.0000   270.0000 </r>
       <r>    -4.5521     0.0000   270.0000 </r>
       <r>    -4.4515     0.0000   270.0000 </r>
       <r>    -4.3509     0.0000   270.0000 </r>
       <r>    -4.2503     0.0000   270.0000 </r>
       <r>    -4.1497     0.0000   270.0000 </r>
       <r>    -4.0491     0.0000   270.0000 </r>
       <r>    -3.9485     0.0000   270.0000 </r>
       <r>    -3.8479     0.0000   270.0000 </r>
       <r>    -3.7473     0.0000   270.0000 </r>
       <r>    -3.6468     0.0000   270.0000 </r>
       <r>    -3.5462     0.0000   270.0000 </r>
       <r>    -3.4456     0.0000   270.0000 </r>
       <r>    -3.3450     0.0000   270.0000 </r>
       <r>    -3.2444     0.0000   270.0000 </r>
       <r>    -3.1438     0.0000   270.0000 </r>
       <r>    -3.0432     0.0000   270.0000 </r>
       <r>    -2.9426     0.0000   270.0000 </r>
       <r>    -2.8420     0.0000   270.0000 </r>
       <r>    -2.7414     0.0000   270.0000 </r>
       <r>    -2.6409     0.0000   270.0000 </r>
       <r>    -2.5403     0.0000   270.0000 </r>
       <r>    -2.4397     0.0000   270.0000 </r>
       <r>    -2.3391    39.7073   273.9942 </r>
       <r>    -2.2385    15.9330   275.6027 </r>
       <r>    -2.1379     0.0000   278.0000 </r>
       <r>    -2.0373     0.0000   278.0000 </r>
       <r>    -1.9367     0.0000   278.0000 </r>
       <r>    -1.8361     0.0000   278.0000 </r>
       <r>    -1.7355     0.0000   278.0000 </r>
       <r>    -1.6350     0.0000   278.0000 </r>
       <r>    -1.5344     1.4096   278.1418 </r>
       <r>    -1.4338     8.1324   279.2514 </r>
       <r>    -1.3332     0.0000   280.0000 </r>
       <r>    -1.2326     0.0000   280.0000 </r>
       <r>    -1.1320    10.4595   281.0521 </r>
       <r>    -1.0314     3.6424   281.4998 </r>
       <r>    -0.9308     6.0125   282.1715 </r>
       <r>    -0.8302    35.4544   288.0000 </r>
       <r>    -0.7296     2.9282   288.2946 </r>
       <r>    -0.6291     4.6134   290.6641 </r>
       <r>    -0.5285    24.8014   293.2948 </r>
       <r>    -0.4279     0.0000   294.0000 </r>
       <r>    -0.3273    19.3402   295.9454 </r>
       <r>    -0.2267     0.0004   296.0000 </r>
       <r>    -0.1261    36.5327   299.6749 </r>
       <r>    -0.0255    16.8943   301.6994 </r>
       <r>     0.0751    29.6601   304.9835 </r>
       <r>     0.1757     2.4452   306.0796 </r>
       <r>     0.2763    13.9226   308.0005 </r>
       <r>     0.3768    11.8626   309.3268 </r>
       <r>     0.4774    44.1178   313.8712 </r>
       <r>     0.5780    24.7298   316.4876 </r>
       <r>     0.6786    48.4132   322.6367 </r>
       <r>     0.7792    45.7944   329.5066 </r>
       <r>     0.8798    49.3492   335.8977 </r>
       <r>     0.9804    27.4775   339.9307 </r>
       <r>     1.0810    84.9065   348.8744 </r>
       <r>     1.1816    57.6151   356.6959 </r>
       <r>     1.2822    43.8038   362.4731 </r>
       <r>     1.3827    52.1074   368.9417 </r>
       <r>     1.4833    54.0665   375.2720 </r>
       <r>     1.5839    63.7996   382.6512 </r>
       <r>     1.6845     5.3015   384.0000 </r>
       <r>     1.7851     0.0000   384.0000 </r>
       <r>     1.8857     0.0000   384.0000 </r>
       <r>     1.9863     0.0000   384.0000 </r>
       <r>     2.0869     0.0000   384.0000 </r>
       <r>     2.1875     0.0000   384.0000 </r>
       <r>     2.2881     0.0000   384.0000 </r>
       <r>     2.3886     0.0000   384.0000 </r>
       <r>     2.4892     0.0000   384.0000 </r>
       <r>     2.5898     0.0000   384.0000 </r>
       <r>     2.6904     0.0000   384.0000 </r>
       <r>     2.7910     0.0000   384.0000 </r>
       <r>     2.8916     0.0000   384.0000 </r>
       <r>     2.9922     0.0000   384.0000 </r>
      </set>
     </set>
    </array>
   </total>
  </dos>
 </calculation>
 <structure name="finalpos" >
  <crystal>
   <varray name="basis" >
    <v>      22.42341563       0.00267485       0.00000000 </v>
    <v>     -11.20947929      19.40545913       0.00000000 </v>
    <v>       0.00000000      -0.00000000      20.00000000 </v>
   </varray>
   <i name="volume">   8703.33318478 </i>
   <varray name="rec_basis" >
    <v>       0.04459317       0.02575905       0.00000000 </v>
    <v>      -0.00000615       0.05152834       0.00000000 </v>
    <v>       0.00000000       0.00000000       0.05000000 </v>
   </varray>
  </crystal>
  <varray name="positions" >
   <v>       0.54204462       0.23822699       0.51333766 </v>
   <v>       0.75937468       0.30942636       0.51346490 </v>
   <v>       0.68834642       0.45576548       0.51320526 </v>
   <v>       0.45738406       0.74150408       0.50279075 </v>
   <v>       0.25657717       0.72191265       0.50047599 </v>
   <v>       0.27614772       0.54051853       0.50483443 </v>
   <v>       0.51393785       0.11175406       0.36047396 </v>
   <v>       0.42926003       0.04013527       0.36135562 </v>
   <v>       0.45412906       0.10370751       0.42324885 </v>
   <v>       0.40491875       0.87155668       0.37702159 </v>
   <v>       0.35881781       0.91313887       0.40007022 </v>
   <v>       0.42213044       0.94824492       0.33548482 </v>
   <v>       0.55226789       0.16350277       0.46001025 </v>
   <v>       0.88624757       0.40641643       0.36245495 </v>
   <v>       0.95796147       0.39355915       0.36367790 </v>
   <v>       0.89448230       0.35515398       0.42567530 </v>
   <v>       0.12652414       0.53759831       0.37953675 </v>
   <v>       0.08511747       0.45021273       0.40377106 </v>
   <v>       0.05010234       0.47737604       0.33818755 </v>
   <v>       0.83459864       0.39384816       0.46179549 </v>
   <v>       0.59363384       0.48843083       0.36404836 </v>
   <v>       0.60693989       0.57317533       0.36719073 </v>
   <v>       0.64388389       0.54612714       0.42888488 </v>
   <v>       0.46299448       0.59779256       0.38184780 </v>
   <v>       0.54973302       0.64298980       0.40811376 </v>
   <v>       0.52410364       0.58258018       0.34102204 </v>
   <v>       0.60400087       0.44657254       0.46212525 </v>
   <v>       0.61929247       0.07009566       0.55684915 </v>
   <v>       0.55822032       0.94174337       0.55828642 </v>
   <v>       0.48355472       0.83639502       0.48779756 </v>
   <v>       0.92752350       0.55596057       0.55633222 </v>
   <v>       0.05581155       0.62303954       0.55825587 </v>
   <v>       0.16134220       0.65259271       0.48849334 </v>
   <v>       0.44119316       0.37657558       0.55553694 </v>
   <v>       0.37404841       0.43781660       0.55751003 </v>
   <v>       0.34550876       0.51502599       0.48664572 </v>
   <v>       0.57995457       0.14548828       0.48394384 </v>
   <v>       0.85235612       0.44001033       0.48476547 </v>
   <v>       0.55783833       0.41820449       0.48508247 </v>
   <v>       0.45284365       0.85752037       0.48455919 </v>
   <v>       0.14022741       0.60067196       0.48634336 </v>
   <v>       0.39745947       0.54570676       0.48674683 </v>
   <v>       0.73124850       0.38971380       0.50936488 </v>
   <v>       0.67585394       0.40210057       0.50979732 </v>
   <v>       0.60803467       0.34730669       0.50946735 </v>
   <v>       0.59563441       0.27949161       0.50986320 </v>
   <v>       0.71819125       0.32185456       0.50991972 </v>
   <v>       0.80253434       0.45158184       0.51148561 </v>
   <v>       0.54627220       0.35682410       0.51186642 </v>
   <v>       0.25812600       0.62467147       0.50208129 </v>
   <v>       0.30171295       0.59668722       0.50338838 </v>
   <v>       0.37321109       0.63934380       0.50309610 </v>
   <v>       0.40123210       0.71094386       0.50227399 </v>
   <v>       0.28704541       0.69622228       0.50110954 </v>
   <v>       0.18206201       0.57370994       0.49990126 </v>
   <v>       0.42409850       0.61415594       0.50183102 </v>
   <v>       0.55163617       0.07362186       0.48212056 </v>
   <v>       0.49627297       0.03597328       0.43744852 </v>
   <v>       0.46432414       0.96356598       0.43532602 </v>
   <v>       0.47244474       0.07462850       0.39331895 </v>
   <v>       0.40968754       0.92227072       0.38424347 </v>
   <v>       0.92419185       0.48361697       0.48299185 </v>
   <v>       0.96198105       0.46527013       0.43914389 </v>
   <v>       0.03437999       0.50557216       0.43733004 </v>
   <v>       0.92344059       0.40237743       0.39545758 </v>
   <v>       0.07588900       0.49164659       0.38701417 </v>
   <v>       0.51450500       0.44672944       0.48355911 </v>
   <v>       0.53368754       0.50376966       0.44068223 </v>
   <v>       0.49354374       0.53603385       0.43895773 </v>
   <v>       0.59729844       0.52891038       0.39796689 </v>
   <v>       0.50869080       0.59281109       0.38984949 </v>
   <v>       0.65039727       0.26645328       0.50950162 </v>
   <v>       0.64069759       0.19507795       0.51201133 </v>
   <v>       0.35861686       0.73981244       0.50091966 </v>
   <v>       0.38389587       0.81587198       0.49753278 </v>
   <v>       0.48625960       0.93056950       0.48111442 </v>
   <v>       0.54201016       0.96866713       0.52379611 </v>
   <v>       0.57575495       0.04011309       0.52402147 </v>
   <v>       0.06723095       0.56102432       0.48262217 </v>
   <v>       0.02898113       0.57939016       0.52431285 </v>
   <v>       0.95756260       0.54183083       0.52421479 </v>
   <v>       0.43722653       0.51246038       0.48326127 </v>
   <v>       0.41819794       0.45515408       0.52415329 </v>
   <v>       0.45574494       0.42127082       0.52403783 </v>
   <v>       0.68483237       0.18413259       0.53673958 </v>
   <v>       0.81325431       0.50717319       0.53475510 </v>
   <v>       0.49081354       0.31205206       0.53541709 </v>
   <v>       0.34385053       0.83834477       0.50377933 </v>
   <v>       0.15984518       0.51134320       0.50747903 </v>
   <v>       0.48620211       0.65401148       0.51126764 </v>
  </varray>
 </structure>
</modeling>
