<?xml version="1.0" encoding="ISO-8859-1"?>
<modeling>
 <generator>
  <i name="program" type="string">vasp </i>
  <i name="version" type="string">5.4.4.18Apr17-6-g9f103f2a35  </i>
  <i name="subversion" type="string">(build Jun 07 2020 16:50:00) complex            parallel </i>
  <i name="platform" type="string">LinuxIFC </i>
  <i name="date" type="string">2023 02 17 </i>
  <i name="time" type="string">18:55:33 </i>
 </generator>
 <incar>
  <i type="string" name="SYSTEM">Simulation for cell shape cell volume r</i>
  <i type="int" name="ISTART">     1</i>
  <i type="string" name="PREC">high</i>
  <i type="string" name="ALGO">48</i>
  <i type="int" name="ICHARG">    11</i>
  <i type="int" name="NELM">   200</i>
  <i type="int" name="IBRION">    -1</i>
  <i name="EDIFF">      0.00001000</i>
  <i name="EDIFFG">     -0.01000000</i>
  <i type="int" name="NSW">     0</i>
  <i type="int" name="ISIF">     2</i>
  <i name="ENCUT">    500.00000000</i>
  <i name="POTIM">      0.30000000</i>
  <i type="string" name="LREAL">A</i>
  <i type="int" name="ISMEAR">     0</i>
  <i name="SIGMA">      0.01000000</i>
  <i type="int" name="NWRITE">     0</i>
  <i type="logical" name="LWAVE"> F  </i>
  <i type="logical" name="LCHARG"> F  </i>
  <v type="int" name="KPOINT_BSE">    -1     0     0     0</v>
  <i type="int" name="NELM">   200</i>
  <i type="string" name="GGA">PE</i>
 </incar>
 <structure name="primitive_cell" >
  <crystal>
   <varray name="basis" >
    <v>      14.70631429       0.00475199       0.00000000 </v>
    <v>      -7.34904106      12.72626335       0.00000000 </v>
    <v>       0.00000000       0.00000000      20.00000000 </v>
   </varray>
   <i name="volume">   3743.82702376 </i>
   <varray name="rec_basis" >
    <v>       0.06798532       0.03925951       0.00000000 </v>
    <v>      -0.00002539       0.07856300       0.00000000 </v>
    <v>       0.00000000       0.00000000       0.05000000 </v>
   </varray>
  </crystal>
  <varray name="positions" >
   <v>      -0.24829214       0.38009990       0.48696628 </v>
   <v>      -0.30338892       0.43491405       0.48712181 </v>
   <v>      -0.30340881       0.27016673       0.48709015 </v>
   <v>      -0.13131487       0.43857767       0.48635822 </v>
   <v>      -0.26056810       0.22730919       0.48621822 </v>
   <v>      -0.26053839      -0.47937008       0.48624957 </v>
   <v>      -0.08303775       0.46283967       0.42687745 </v>
   <v>      -0.41323325       0.38017416       0.48712655 </v>
   <v>      -0.41325607       0.21503207       0.48707785 </v>
   <v>      -0.07316286       0.46742392      -0.45386233 </v>
   <v>      -0.11280982       0.44757717      -0.40537679 </v>
   <v>      -0.46794232       0.27025276       0.48723461 </v>
   <v>       0.02265264      -0.48438144       0.42754281 </v>
   <v>       0.03178631      -0.48026810      -0.45314416 </v>
   <v>      -0.47187153       0.43859346       0.48657027 </v>
   <v>      -0.47194473       0.09795072       0.48648258 </v>
   <v>       0.44640590       0.22743023       0.48643009 </v>
   <v>       0.08131887      -0.45527230       0.48764454 </v>
   <v>      -0.49611826       0.04970424       0.42697595 </v>
   <v>      -0.49624891       0.46248270       0.42707866 </v>
   <v>      -0.48123151       0.44781648      -0.40516285 </v>
   <v>      -0.48175505       0.07935885      -0.40526167 </v>
   <v>       0.49895816       0.46763690      -0.45366235 </v>
   <v>       0.49860172       0.03970456      -0.45375540 </v>
   <v>       0.07435015      -0.45852313       0.36374697 </v>
   <v>       0.19825872      -0.39674850       0.48747367 </v>
   <v>       0.45075803      -0.48476745       0.42767782 </v>
   <v>       0.45077474      -0.05606673       0.42758098 </v>
   <v>       0.11661566      -0.43753089       0.31194243 </v>
   <v>       0.44635267      -0.47994137      -0.45297734 </v>
   <v>       0.44596594      -0.06535319      -0.45305778 </v>
   <v>       0.21043606      -0.24399214       0.48744105 </v>
   <v>       0.21055021       0.46277710       0.48745051 </v>
   <v>       0.42157425      -0.45523803       0.48778122 </v>
   <v>       0.42140733      -0.11480142       0.48768720 </v>
   <v>       0.25324938      -0.28687326       0.48740389 </v>
   <v>       0.25334274      -0.45151856       0.48743774 </v>
   <v>       0.42435185      -0.45920691       0.36392411 </v>
   <v>       0.42435047      -0.10804517       0.36382725 </v>
   <v>       0.40237828      -0.43812975       0.31236524 </v>
   <v>       0.40222371      -0.15111740       0.31226896 </v>
   <v>       0.36304115      -0.23180116       0.48746619 </v>
   <v>       0.36313809      -0.39669021       0.48753451 </v>
   <v>      -0.49647028      -0.24392364       0.48736909 </v>
   <v>       0.41788555      -0.28681470       0.48739522 </v>
  </varray>
 </structure>
 <varray name="primitive_index" >
  <v type="int" >        1 </v>
  <v type="int" >        2 </v>
  <v type="int" >        3 </v>
  <v type="int" >        4 </v>
  <v type="int" >       37 </v>
  <v type="int" >       38 </v>
  <v type="int" >       28 </v>
  <v type="int" >        6 </v>
  <v type="int" >        7 </v>
  <v type="int" >        5 </v>
  <v type="int" >       39 </v>
  <v type="int" >        8 </v>
  <v type="int" >       26 </v>
  <v type="int" >       36 </v>
  <v type="int" >       10 </v>
  <v type="int" >        9 </v>
  <v type="int" >       43 </v>
  <v type="int" >       25 </v>
  <v type="int" >       29 </v>
  <v type="int" >       30 </v>
  <v type="int" >       42 </v>
  <v type="int" >       41 </v>
  <v type="int" >       12 </v>
  <v type="int" >       11 </v>
  <v type="int" >       27 </v>
  <v type="int" >       13 </v>
  <v type="int" >       23 </v>
  <v type="int" >       20 </v>
  <v type="int" >       33 </v>
  <v type="int" >       35 </v>
  <v type="int" >       34 </v>
  <v type="int" >       44 </v>
  <v type="int" >       45 </v>
  <v type="int" >       22 </v>
  <v type="int" >       19 </v>
  <v type="int" >       18 </v>
  <v type="int" >       14 </v>
  <v type="int" >       24 </v>
  <v type="int" >       21 </v>
  <v type="int" >       32 </v>
  <v type="int" >       31 </v>
  <v type="int" >       17 </v>
  <v type="int" >       15 </v>
  <v type="int" >       40 </v>
  <v type="int" >       16 </v>
 </varray>
 <kpoints>
  <generation param="listgenerated">
   <i name="divisions" type="int">      20 </i>
   <v>       0.00000000       0.00000000       0.00000000 </v>
   <v>       0.50000000       0.00000000       0.00000000 </v>
   <v>       0.33333333       0.33333333       0.00000000 </v>
   <v>       0.00000000       0.00000000       0.00000000 </v>
  </generation>
  <varray name="kpointlist" >
   <v>       0.00000000       0.00000000       0.00000000 </v>
   <v>       0.02631579       0.00000000       0.00000000 </v>
   <v>       0.05263158       0.00000000       0.00000000 </v>
   <v>       0.07894737       0.00000000       0.00000000 </v>
   <v>       0.10526316       0.00000000       0.00000000 </v>
   <v>       0.13157895       0.00000000       0.00000000 </v>
   <v>       0.15789474       0.00000000       0.00000000 </v>
   <v>       0.18421053       0.00000000       0.00000000 </v>
   <v>       0.21052632       0.00000000       0.00000000 </v>
   <v>       0.23684211       0.00000000       0.00000000 </v>
   <v>       0.26315789       0.00000000       0.00000000 </v>
   <v>       0.28947368       0.00000000       0.00000000 </v>
   <v>       0.31578947       0.00000000       0.00000000 </v>
   <v>       0.34210526       0.00000000       0.00000000 </v>
   <v>       0.36842105       0.00000000       0.00000000 </v>
   <v>       0.39473684       0.00000000       0.00000000 </v>
   <v>       0.42105263       0.00000000       0.00000000 </v>
   <v>       0.44736842       0.00000000       0.00000000 </v>
   <v>       0.47368421       0.00000000       0.00000000 </v>
   <v>       0.50000000       0.00000000       0.00000000 </v>
   <v>       0.50000000       0.00000000       0.00000000 </v>
   <v>       0.49122807       0.01754386       0.00000000 </v>
   <v>       0.48245614       0.03508772       0.00000000 </v>
   <v>       0.47368421       0.05263158       0.00000000 </v>
   <v>       0.46491228       0.07017544       0.00000000 </v>
   <v>       0.45614035       0.08771930       0.00000000 </v>
   <v>       0.44736842       0.10526316       0.00000000 </v>
   <v>       0.43859649       0.12280702       0.00000000 </v>
   <v>       0.42982456       0.14035088       0.00000000 </v>
   <v>       0.42105263       0.15789474       0.00000000 </v>
   <v>       0.41228070       0.17543860       0.00000000 </v>
   <v>       0.40350877       0.19298246       0.00000000 </v>
   <v>       0.39473684       0.21052632       0.00000000 </v>
   <v>       0.38596491       0.22807018       0.00000000 </v>
   <v>       0.37719298       0.24561404       0.00000000 </v>
   <v>       0.36842105       0.26315789       0.00000000 </v>
   <v>       0.35964912       0.28070175       0.00000000 </v>
   <v>       0.35087719       0.29824561       0.00000000 </v>
   <v>       0.34210526       0.31578947       0.00000000 </v>
   <v>       0.33333333       0.33333333       0.00000000 </v>
   <v>       0.33333333       0.33333333       0.00000000 </v>
   <v>       0.31578947       0.31578947       0.00000000 </v>
   <v>       0.29824561       0.29824561       0.00000000 </v>
   <v>       0.28070175       0.28070175       0.00000000 </v>
   <v>       0.26315789       0.26315789       0.00000000 </v>
   <v>       0.24561404       0.24561404       0.00000000 </v>
   <v>       0.22807018       0.22807018       0.00000000 </v>
   <v>       0.21052632       0.21052632       0.00000000 </v>
   <v>       0.19298246       0.19298246       0.00000000 </v>
   <v>       0.17543860       0.17543860       0.00000000 </v>
   <v>       0.15789474       0.15789474       0.00000000 </v>
   <v>       0.14035088       0.14035088       0.00000000 </v>
   <v>       0.12280702       0.12280702       0.00000000 </v>
   <v>       0.10526316       0.10526316       0.00000000 </v>
   <v>       0.08771930       0.08771930       0.00000000 </v>
   <v>       0.07017544       0.07017544       0.00000000 </v>
   <v>       0.05263158       0.05263158       0.00000000 </v>
   <v>       0.03508772       0.03508772       0.00000000 </v>
   <v>       0.01754386       0.01754386       0.00000000 </v>
   <v>       0.00000000       0.00000000       0.00000000 </v>
  </varray>
  <varray name="weights" >
   <v>       0.01666667 </v>
   <v>       0.01666667 </v>
   <v>       0.01666667 </v>
   <v>       0.01666667 </v>
   <v>       0.01666667 </v>
   <v>       0.01666667 </v>
   <v>       0.01666667 </v>
   <v>       0.01666667 </v>
   <v>       0.01666667 </v>
   <v>       0.01666667 </v>
   <v>       0.01666667 </v>
   <v>       0.01666667 </v>
   <v>       0.01666667 </v>
   <v>       0.01666667 </v>
   <v>       0.01666667 </v>
   <v>       0.01666667 </v>
   <v>       0.01666667 </v>
   <v>       0.01666667 </v>
   <v>       0.01666667 </v>
   <v>       0.01666667 </v>
   <v>       0.01666667 </v>
   <v>       0.01666667 </v>
   <v>       0.01666667 </v>
   <v>       0.01666667 </v>
   <v>       0.01666667 </v>
   <v>       0.01666667 </v>
   <v>       0.01666667 </v>
   <v>       0.01666667 </v>
   <v>       0.01666667 </v>
   <v>       0.01666667 </v>
   <v>       0.01666667 </v>
   <v>       0.01666667 </v>
   <v>       0.01666667 </v>
   <v>       0.01666667 </v>
   <v>       0.01666667 </v>
   <v>       0.01666667 </v>
   <v>       0.01666667 </v>
   <v>       0.01666667 </v>
   <v>       0.01666667 </v>
   <v>       0.01666667 </v>
   <v>       0.01666667 </v>
   <v>       0.01666667 </v>
   <v>       0.01666667 </v>
   <v>       0.01666667 </v>
   <v>       0.01666667 </v>
   <v>       0.01666667 </v>
   <v>       0.01666667 </v>
   <v>       0.01666667 </v>
   <v>       0.01666667 </v>
   <v>       0.01666667 </v>
   <v>       0.01666667 </v>
   <v>       0.01666667 </v>
   <v>       0.01666667 </v>
   <v>       0.01666667 </v>
   <v>       0.01666667 </v>
   <v>       0.01666667 </v>
   <v>       0.01666667 </v>
   <v>       0.01666667 </v>
   <v>       0.01666667 </v>
   <v>       0.01666667 </v>
  </varray>
 </kpoints>
 <parameters>
  <separator name="general" >
   <i type="string" name="SYSTEM">Simulation for cell shape cell volume r</i>
   <i type="logical" name="LCOMPAT"> F  </i>
  </separator>
  <separator name="electronic" >
   <i type="string" name="PREC">high</i>
   <i name="ENMAX">    500.00000000</i>
   <i name="ENAUG">    644.87300000</i>
   <i name="EDIFF">      0.00001000</i>
   <i type="int" name="IALGO">    38</i>
   <i type="int" name="IWAVPR">    10</i>
   <i type="int" name="NBANDS">   112</i>
   <i name="NELECT">    162.00000000</i>
   <i type="int" name="TURBO">     0</i>
   <i type="int" name="IRESTART">     0</i>
   <i type="int" name="NREBOOT">     0</i>
   <i type="int" name="NMIN">     0</i>
   <i name="EREF">      0.00000000</i>
   <separator name="electronic smearing" >
    <i type="int" name="ISMEAR">     0</i>
    <i name="SIGMA">      0.01000000</i>
    <i name="KSPACING">      0.50000000</i>
    <i type="logical" name="KGAMMA"> T  </i>
   </separator>
   <separator name="electronic projectors" >
    <i type="logical" name="LREAL"> T  </i>
    <v name="ROPT">     -0.00040000     -0.00040000     -0.00040000</v>
    <i type="int" name="LMAXPAW">  -100</i>
    <i type="int" name="LMAXMIX">     2</i>
    <i type="logical" name="NLSPLINE"> F  </i>
   </separator>
   <separator name="electronic startup" >
    <i type="int" name="ISTART">     1</i>
    <i type="int" name="ICHARG">    11</i>
    <i type="int" name="INIWAV">     1</i>
   </separator>
   <separator name="electronic spin" >
    <i type="int" name="ISPIN">     1</i>
    <i type="logical" name="LNONCOLLINEAR"> F  </i>
    <v name="MAGMOM">      1.00000000      1.00000000      1.00000000      1.00000000      1.00000000      1.00000000      1.00000000      1.00000000      1.00000000      1.00000000      1.00000000      1.00000000      1.00000000      1.00000000      1.00000000      1.00000000      1.00000000      1.00000000      1.00000000      1.00000000
      1.00000000      1.00000000      1.00000000      1.00000000      1.00000000      1.00000000      1.00000000      1.00000000      1.00000000      1.00000000      1.00000000      1.00000000      1.00000000      1.00000000      1.00000000      1.00000000      1.00000000      1.00000000      1.00000000      1.00000000
      1.00000000      1.00000000      1.00000000      1.00000000      1.00000000</v>
    <i name="NUPDOWN">     -1.00000000</i>
    <i type="logical" name="LSORBIT"> F  </i>
    <v name="SAXIS">      0.00000000      0.00000000      1.00000000</v>
    <i type="logical" name="LSPIRAL"> F  </i>
    <v name="QSPIRAL">      0.00000000      0.00000000      0.00000000</v>
    <i type="logical" name="LZEROZ"> F  </i>
   </separator>
   <separator name="electronic exchange-correlation" >
    <i type="logical" name="LASPH"> F  </i>
    <i type="logical" name="LMETAGGA"> F  </i>
   </separator>
   <separator name="electronic convergence" >
    <i type="int" name="NELM">   200</i>
    <i type="int" name="NELMDL">     0</i>
    <i type="int" name="NELMIN">     2</i>
    <i name="ENINI">    500.00000000</i>
    <separator name="electronic convergence detail" >
     <i type="logical" name="LDIAG"> T  </i>
     <i type="logical" name="LSUBROT"> F  </i>
     <i name="WEIMIN">      0.00000000</i>
     <i name="EBREAK">      0.00000002</i>
     <i name="DEPER">      0.30000000</i>
     <i type="int" name="NRMM">     4</i>
     <i name="TIME">      0.40000000</i>
    </separator>
   </separator>
   <separator name="electronic mixer" >
    <i name="AMIX">      0.40000000</i>
    <i name="BMIX">      1.00000000</i>
    <i name="AMIN">      0.10000000</i>
    <i name="AMIX_MAG">      1.60000000</i>
    <i name="BMIX_MAG">      1.00000000</i>
    <separator name="electronic mixer details" >
     <i type="int" name="IMIX">     4</i>
     <i type="logical" name="MIXFIRST"> F  </i>
     <i type="int" name="MAXMIX">   -45</i>
     <i name="WC">    100.00000000</i>
     <i type="int" name="INIMIX">     1</i>
     <i type="int" name="MIXPRE">     1</i>
     <i type="int" name="MREMOVE">     5</i>
    </separator>
   </separator>
   <separator name="electronic dipolcorrection" >
    <i type="logical" name="LDIPOL"> F  </i>
    <i type="logical" name="LMONO"> F  </i>
    <i type="int" name="IDIPOL">     0</i>
    <i name="EPSILON">      1.00000000</i>
    <v name="DIPOL">   -100.00000000   -100.00000000   -100.00000000</v>
    <i name="EFIELD">      0.00000000</i>
   </separator>
  </separator>
  <separator name="grids" >
   <i type="int" name="NGX">   108</i>
   <i type="int" name="NGY">   108</i>
   <i type="int" name="NGZ">   150</i>
   <i type="int" name="NGXF">   162</i>
   <i type="int" name="NGYF">   162</i>
   <i type="int" name="NGZF">   224</i>
   <i type="logical" name="ADDGRID"> F  </i>
  </separator>
  <separator name="ionic" >
   <i type="int" name="NSW">     0</i>
   <i type="int" name="IBRION">    -1</i>
   <i type="int" name="MDALGO">     0</i>
   <i type="int" name="ISIF">     2</i>
   <i name="PSTRESS">      0.00000000</i>
   <i name="EDIFFG">     -0.01000000</i>
   <i type="int" name="NFREE">     0</i>
   <i name="POTIM">      0.30000000</i>
   <i name="SMASS">     -3.00000000</i>
   <i name="SCALEE">      1.00000000</i>
  </separator>
  <separator name="ionic md" >
   <i name="TEBEG">      0.00010000</i>
   <i name="TEEND">      0.00010000</i>
   <i type="int" name="NBLOCK">     1</i>
   <i type="int" name="KBLOCK">     1</i>
   <i type="int" name="NPACO">   256</i>
   <i name="APACO">     16.00000000</i>
  </separator>
  <separator name="symmetry" >
   <i type="int" name="ISYM">     2</i>
   <i name="SYMPREC">      0.00001000</i>
  </separator>
  <separator name="dos" >
   <i type="int" name="LORBIT">     0</i>
   <v name="RWIGS">     -1.00000000     -1.00000000     -1.00000000</v>
   <i type="int" name="NEDOS">   301</i>
   <i name="EMIN">     10.00000000</i>
   <i name="EMAX">    -10.00000000</i>
   <i name="EFERMI">      0.00000000</i>
  </separator>
  <separator name="writing" >
   <i type="int" name="NWRITE">     0</i>
   <i type="logical" name="LWAVE"> F  </i>
   <i type="logical" name="LDOWNSAMPLE"> F  </i>
   <i type="logical" name="LCHARG"> F  </i>
   <i type="logical" name="LPARD"> F  </i>
   <i type="logical" name="LVTOT"> F  </i>
   <i type="logical" name="LVHAR"> F  </i>
   <i type="logical" name="LELF"> F  </i>
   <i type="logical" name="LOPTICS"> F  </i>
   <v name="STM">      0.00000000      0.00000000      0.00000000      0.00000000      0.00000000      0.00000000      0.00000000</v>
  </separator>
  <separator name="performance" >
   <i type="int" name="NPAR">    16</i>
   <i type="int" name="NSIM">     4</i>
   <i type="int" name="NBLK">    -1</i>
   <i type="logical" name="LPLANE"> T  </i>
   <i type="logical" name="LSCALAPACK"> T  </i>
   <i type="logical" name="LSCAAWARE"> F  </i>
   <i type="logical" name="LSCALU"> F  </i>
   <i type="logical" name="LASYNC"> F  </i>
   <i type="logical" name="LORBITALREAL"> F  </i>
  </separator>
  <separator name="miscellaneous" >
   <i type="int" name="IDIOT">     3</i>
   <i type="int" name="ISPECIAL">     0</i>
   <i type="logical" name="LMUSIC"> F  </i>
   <v name="POMASS">     12.01100000     14.00100000      1.00000000</v>
   <v name="DARWINR">      0.00000000      0.00000000      0.00000000</v>
   <v name="DARWINV">      1.00000000      1.00000000      1.00000000</v>
   <i type="logical" name="LCORR"> T  </i>
  </separator>
  <i type="logical" name="GGA_COMPAT"> T  </i>
  <i type="logical" name="LBERRY"> F  </i>
  <i type="int" name="ICORELEVEL">     0</i>
  <i type="logical" name="LDAU"> F  </i>
  <i type="int" name="I_CONSTRAINED_M">     0</i>
  <separator name="electronic exchange-correlation" >
   <i type="string" name="GGA">PE</i>
   <i type="int" name="VOSKOWN">     0</i>
   <i type="logical" name="LHFCALC"> F  </i>
   <i type="string" name="PRECFOCK"></i>
   <i type="logical" name="LSYMGRAD"> F  </i>
   <i type="logical" name="LHFONE"> F  </i>
   <i type="logical" name="LRHFCALC"> F  </i>
   <i type="logical" name="LTHOMAS"> F  </i>
   <i type="logical" name="LMODELHF"> F  </i>
   <i name="ENCUT4O">     -1.00000000</i>
   <i type="int" name="EXXOEP">     0</i>
   <i type="int" name="FOURORBIT">     0</i>
   <i name="AEXX">      0.00000000</i>
   <i name="HFALPHA">      0.00000000</i>
   <i name="MCALPHA">      0.00000000</i>
   <i name="ALDAX">      1.00000000</i>
   <i name="AGGAX">      1.00000000</i>
   <i name="ALDAC">      1.00000000</i>
   <i name="AGGAC">      1.00000000</i>
   <i type="int" name="NKREDX">     1</i>
   <i type="int" name="NKREDY">     1</i>
   <i type="int" name="NKREDZ">     1</i>
   <i type="logical" name="SHIFTRED"> F  </i>
   <i type="logical" name="ODDONLY"> F  </i>
   <i type="logical" name="EVENONLY"> F  </i>
   <i type="int" name="LMAXFOCK">     0</i>
   <i type="int" name="NMAXFOCKAE">     0</i>
   <i type="logical" name="LFOCKAEDFT"> F  </i>
   <i name="HFSCREEN">      0.00000000</i>
   <i name="HFSCREENC">      0.00000000</i>
   <i type="int" name="NBANDSGWLOW">     0</i>
  </separator>
  <separator name="vdW DFT" >
   <i type="logical" name="LUSE_VDW"> F  </i>
   <i name="Zab_VDW">     -0.84910000</i>
   <i name="PARAM1">      0.12340000</i>
   <i name="PARAM2">      1.00000000</i>
   <i name="PARAM3">      0.00000000</i>
  </separator>
  <separator name="model GW" >
   <i type="int" name="MODEL_GW">     0</i>
   <i name="MODEL_EPS0">     49.91769365</i>
   <i name="MODEL_ALPHA">      1.00000000</i>
  </separator>
  <separator name="linear response parameters" >
   <i type="logical" name="LEPSILON"> F  </i>
   <i type="logical" name="LRPA"> F  </i>
   <i type="logical" name="LNABLA"> F  </i>
   <i type="logical" name="LVEL"> F  </i>
   <i type="int" name="KINTER">     0</i>
   <i name="CSHIFT">      0.10000000</i>
   <i name="OMEGAMAX">     -1.00000000</i>
   <i name="DEG_THRESHOLD">      0.00200000</i>
   <i name="RTIME">     -0.10000000</i>
   <i name="WPLASMAI">      0.00000000</i>
   <v name="DFIELD">      0.00000000      0.00000000      0.00000000</v>
   <v name="WPLASMA">      0.00000000      0.00000000      0.00000000      0.00000000      0.00000000      0.00000000      0.00000000      0.00000000      0.00000000</v>
  </separator>
  <separator name="orbital magnetization" >
   <i type="logical" name="NUCIND"> F  </i>
   <v name="MAGPOS">      0.00000000      0.00000000      0.00000000</v>
   <i type="logical" name="LNICSALL"> T  </i>
   <i type="logical" name="ORBITALMAG"> F  </i>
   <i type="logical" name="LMAGBLOCH"> F  </i>
   <i type="logical" name="LCHIMAG"> F  </i>
   <i type="logical" name="LGAUGE"> T  </i>
   <i type="int" name="MAGATOM">     0</i>
   <v name="MAGDIPOL">      0.00000000      0.00000000      0.00000000</v>
   <v name="AVECCONST">      0.00000000      0.00000000      0.00000000</v>
  </separator>
  <separator name="response functions" >
   <i type="logical" name="LADDER"> F  </i>
   <i type="logical" name="LRPAFORCE"> F  </i>
   <i type="logical" name="LFXC"> F  </i>
   <i type="logical" name="LHARTREE"> T  </i>
   <i type="int" name="IBSE">     0</i>
   <v type="int" name="KPOINT">    -1     0     0     0</v>
   <i type="logical" name="LTCTE"> F  </i>
   <i type="logical" name="LTETE"> F  </i>
   <i type="logical" name="LTRIPLET"> F  </i>
   <i type="logical" name="LFXCEPS"> F  </i>
   <i type="logical" name="LFXHEG"> F  </i>
   <i type="int" name="NATURALO">     2</i>
   <i type="logical" name="L2ORDER"> F  </i>
   <i type="logical" name="LMP2LT"> F  </i>
   <i type="logical" name="LUSEW"> F  </i>
   <i name="ENCUTGW">     -2.00000000</i>
   <i name="ENCUTGWSOFT">     -2.00000000</i>
   <i name="ENCUTLF">     -1.00000000</i>
   <i type="int" name="LMAXMP2">    -1</i>
   <i name="SCISSOR">      0.00000000</i>
   <i type="int" name="NOMEGA">     0</i>
   <i type="int" name="NOMEGAR">     0</i>
   <i type="int" name="NBANDSGW">    -1</i>
   <i type="int" name="NBANDSO">    -1</i>
   <i type="int" name="NBANDSV">    -1</i>
   <i type="int" name="NELM">   200</i>
   <i type="int" name="NELMHF">     1</i>
   <i type="int" name="DIM">     3</i>
   <i type="int" name="ANTIRES">     0</i>
   <i name="OMEGAMAX">    -30.00000000</i>
   <i name="OMEGAMIN">    -30.00000000</i>
   <i name="OMEGATL">   -200.00000000</i>
   <i type="int" name="OMEGAGRID">   140</i>
   <i name="CSHIFT">     -0.10000000</i>
   <i type="logical" name="SELFENERGY"> F  </i>
   <i type="logical" name="LSPECTRAL"> F  </i>
   <i type="logical" name="LSPECTRALGW"> F  </i>
   <i type="logical" name="LSINGLES"> F  </i>
   <i type="logical" name="LFERMIGW"> F  </i>
   <i type="logical" name="ODDONLYGW"> F  </i>
   <i type="logical" name="EVENONLYGW"> F  </i>
   <i type="int" name="NKREDLFX">     1</i>
   <i type="int" name="NKREDLFY">     1</i>
   <i type="int" name="NKREDLFZ">     1</i>
   <i type="int" name="MAXMEM">  2800</i>
   <i type="int" name="TELESCOPE">     0</i>
   <i type="int" name="TAUPAR">     1</i>
   <i type="int" name="OMEGAPAR">    -1</i>
   <i name="LAMBDA">      1.00000000</i>
  </separator>
  <separator name="External order field" >
   <i name="OFIELD_KAPPA">      0.00000000</i>
   <v name="OFIELD_K">      0.00000000      0.00000000      0.00000000</v>
   <i name="OFIELD_Q6_NEAR">      0.00000000</i>
   <i name="OFIELD_Q6_FAR">      0.00000000</i>
   <i name="OFIELD_A">      0.00000000</i>
  </separator>
  <separator name="solvation model" >
   <i type="logical" name="LSOL"> F  </i>
  </separator>
 </parameters>
 <atominfo>
  <atoms>      45 </atoms>
  <types>       3 </types>
  <array name="atoms" >
   <dimension dim="1">ion</dimension>
   <field type="string">element</field>
   <field type="int">atomtype</field>
   <set>
    <rc><c>C </c><c>   1</c></rc>
    <rc><c>C </c><c>   1</c></rc>
    <rc><c>C </c><c>   1</c></rc>
    <rc><c>C </c><c>   1</c></rc>
    <rc><c>C </c><c>   1</c></rc>
    <rc><c>C </c><c>   1</c></rc>
    <rc><c>C </c><c>   1</c></rc>
    <rc><c>C </c><c>   1</c></rc>
    <rc><c>C </c><c>   1</c></rc>
    <rc><c>C </c><c>   1</c></rc>
    <rc><c>C </c><c>   1</c></rc>
    <rc><c>C </c><c>   1</c></rc>
    <rc><c>C </c><c>   1</c></rc>
    <rc><c>C </c><c>   1</c></rc>
    <rc><c>C </c><c>   1</c></rc>
    <rc><c>C </c><c>   1</c></rc>
    <rc><c>C </c><c>   1</c></rc>
    <rc><c>C </c><c>   1</c></rc>
    <rc><c>C </c><c>   1</c></rc>
    <rc><c>C </c><c>   1</c></rc>
    <rc><c>C </c><c>   1</c></rc>
    <rc><c>C </c><c>   1</c></rc>
    <rc><c>C </c><c>   1</c></rc>
    <rc><c>C </c><c>   1</c></rc>
    <rc><c>C </c><c>   1</c></rc>
    <rc><c>C </c><c>   1</c></rc>
    <rc><c>C </c><c>   1</c></rc>
    <rc><c>N </c><c>   2</c></rc>
    <rc><c>N </c><c>   2</c></rc>
    <rc><c>N </c><c>   2</c></rc>
    <rc><c>N </c><c>   2</c></rc>
    <rc><c>N </c><c>   2</c></rc>
    <rc><c>N </c><c>   2</c></rc>
    <rc><c>N </c><c>   2</c></rc>
    <rc><c>N </c><c>   2</c></rc>
    <rc><c>N </c><c>   2</c></rc>
    <rc><c>H </c><c>   3</c></rc>
    <rc><c>H </c><c>   3</c></rc>
    <rc><c>H </c><c>   3</c></rc>
    <rc><c>H </c><c>   3</c></rc>
    <rc><c>H </c><c>   3</c></rc>
    <rc><c>H </c><c>   3</c></rc>
    <rc><c>H </c><c>   3</c></rc>
    <rc><c>H </c><c>   3</c></rc>
    <rc><c>H </c><c>   3</c></rc>
   </set>
  </array>
  <array name="atomtypes" >
   <dimension dim="1">type</dimension>
   <field type="int">atomspertype</field>
   <field type="string">element</field>
   <field>mass</field>
   <field>valence</field>
   <field type="string">pseudopotential</field>
   <set>
    <rc><c>  27</c><c>C </c><c>     12.01100000</c><c>      4.00000000</c><c>  PAW_PBE C 08Apr2002                   </c></rc>
    <rc><c>   9</c><c>N </c><c>     14.00100000</c><c>      5.00000000</c><c>  PAW_PBE N 08Apr2002                   </c></rc>
    <rc><c>   9</c><c>H </c><c>      1.00000000</c><c>      1.00000000</c><c>  PAW_PBE H 15Jun2001                   </c></rc>
   </set>
  </array>
 </atominfo>
 <structure name="initialpos" >
  <crystal>
   <varray name="basis" >
    <v>      14.70631429       0.00475199       0.00000000 </v>
    <v>      -7.34904106      12.72626335       0.00000000 </v>
    <v>       0.00000000       0.00000000      20.00000000 </v>
   </varray>
   <i name="volume">   3743.82702376 </i>
   <varray name="rec_basis" >
    <v>       0.06798532       0.03925951       0.00000000 </v>
    <v>      -0.00002539       0.07856300       0.00000000 </v>
    <v>       0.00000000       0.00000000       0.05000000 </v>
   </varray>
  </crystal>
  <varray name="positions" >
   <v>       0.75170786       0.38009990       0.48696628 </v>
   <v>       0.69661108       0.43491405       0.48712181 </v>
   <v>       0.69659119       0.27016673       0.48709015 </v>
   <v>       0.86868513       0.43857767       0.48635822 </v>
   <v>       0.92683714       0.46742392       0.54613767 </v>
   <v>       0.58676675       0.38017416       0.48712655 </v>
   <v>       0.58674393       0.21503207       0.48707785 </v>
   <v>       0.53205768       0.27025276       0.48723461 </v>
   <v>       0.52805527       0.09795072       0.48648258 </v>
   <v>       0.52812847       0.43859346       0.48657027 </v>
   <v>       0.49860172       0.03970456       0.54624460 </v>
   <v>       0.49895816       0.46763690       0.54633765 </v>
   <v>       0.19825872       0.60325150       0.48747367 </v>
   <v>       0.25334274       0.54848144       0.48743774 </v>
   <v>       0.36313809       0.60330979       0.48753451 </v>
   <v>       0.41788555       0.71318530       0.48739522 </v>
   <v>       0.36304115       0.76819884       0.48746619 </v>
   <v>       0.25324938       0.71312674       0.48740389 </v>
   <v>       0.42140733       0.88519858       0.48768720 </v>
   <v>       0.45077474       0.94393327       0.42758098 </v>
   <v>       0.42435047       0.89195483       0.36382725 </v>
   <v>       0.42157425       0.54476197       0.48778122 </v>
   <v>       0.45075803       0.51523255       0.42767782 </v>
   <v>       0.42435185       0.54079309       0.36392411 </v>
   <v>       0.08131887       0.54472770       0.48764454 </v>
   <v>       0.02265264       0.51561856       0.42754281 </v>
   <v>       0.07435015       0.54147687       0.36374697 </v>
   <v>       0.91696225       0.46283967       0.42687745 </v>
   <v>       0.50388174       0.04970424       0.42697595 </v>
   <v>       0.50375109       0.46248270       0.42707866 </v>
   <v>       0.40222371       0.84888260       0.31226896 </v>
   <v>       0.40237828       0.56187025       0.31236524 </v>
   <v>       0.11661566       0.56246911       0.31194243 </v>
   <v>       0.44596594       0.93464681       0.54694222 </v>
   <v>       0.44635267       0.52005863       0.54702266 </v>
   <v>       0.03178631       0.51973190       0.54685584 </v>
   <v>       0.73943190       0.22730919       0.48621822 </v>
   <v>       0.73946161       0.52062992       0.48624957 </v>
   <v>       0.88719018       0.44757717       0.59462321 </v>
   <v>       0.50352972       0.75607636       0.48736909 </v>
   <v>       0.51824495       0.07935885       0.59473833 </v>
   <v>       0.51876849       0.44781648       0.59483715 </v>
   <v>       0.44640590       0.22743023       0.48643009 </v>
   <v>       0.21043606       0.75600786       0.48744105 </v>
   <v>       0.21055021       0.46277710       0.48745051 </v>
  </varray>
 </structure>
 <calculation>
  <scstep>
   <time name="dav">   27.35   27.55</time>
   <time name="total">   27.44   27.65</time>
   <energy>
    <i name="alphaZ">     33.33436431 </i>
    <i name="ewald">  16378.44843768 </i>
    <i name="hartreedc"> -21642.12143069 </i>
    <i name="XCdc">    573.37890402 </i>
    <i name="pawpsdc">  15818.57311682 </i>
    <i name="pawaedc"> -15849.47969254 </i>
    <i name="eentropy">     -0.00000000 </i>
    <i name="bandstr">  -2121.36224013 </i>
    <i name="atom">   6466.19889921 </i>
    <i name="e_fr_energy">   -343.02964132 </i>
    <i name="e_wo_entrp">   -343.02964132 </i>
    <i name="e_0_energy">   -343.02964132 </i>
   </energy>
  </scstep>
  <scstep>
   <time name="dav">   30.62   30.84</time>
   <time name="total">   30.63   30.85</time>
   <energy>
    <i name="e_fr_energy">   -344.78724949 </i>
    <i name="e_wo_entrp">   -344.78724949 </i>
    <i name="e_0_energy">   -344.78724949 </i>
   </energy>
  </scstep>
  <scstep>
   <time name="dav">   31.29   31.51</time>
   <time name="total">   31.29   31.52</time>
   <energy>
    <i name="e_fr_energy">   -344.82652730 </i>
    <i name="e_wo_entrp">   -344.82652730 </i>
    <i name="e_0_energy">   -344.82652730 </i>
   </energy>
  </scstep>
  <scstep>
   <time name="dav">   32.20   32.43</time>
   <time name="total">   32.20   32.43</time>
   <energy>
    <i name="e_fr_energy">   -344.82755517 </i>
    <i name="e_wo_entrp">   -344.82755517 </i>
    <i name="e_0_energy">   -344.82755517 </i>
   </energy>
  </scstep>
  <scstep>
   <time name="dav">   29.58   29.79</time>
   <time name="total">   29.59   29.80</time>
   <energy>
    <i name="e_fr_energy">   -344.82758923 </i>
    <i name="e_wo_entrp">   -344.82758923 </i>
    <i name="e_0_energy">   -344.82758923 </i>
   </energy>
  </scstep>
  <scstep>
   <time name="dav">   24.43   24.60</time>
   <time name="total">   24.43   24.60</time>
   <energy>
    <i name="alphaZ">     33.33436431 </i>
    <i name="ewald">  16378.44843768 </i>
    <i name="hartreedc"> -21642.12143069 </i>
    <i name="XCdc">    573.37890402 </i>
    <i name="pawpsdc">  15818.57311682 </i>
    <i name="pawaedc"> -15849.47969254 </i>
    <i name="eentropy">     -0.00000000 </i>
    <i name="bandstr">  -2123.16018879 </i>
    <i name="atom">   6466.19889921 </i>
    <i name="e_fr_energy">   -344.82758997 </i>
    <i name="e_wo_entrp">   -344.82758997 </i>
    <i name="e_0_energy">   -344.82758997 </i>
   </energy>
  </scstep>
  <structure>
   <crystal>
    <varray name="basis" >
     <v>      14.70631429       0.00475199       0.00000000 </v>
     <v>      -7.34904106      12.72626335       0.00000000 </v>
     <v>       0.00000000       0.00000000      20.00000000 </v>
    </varray>
    <i name="volume">   3743.82702376 </i>
    <varray name="rec_basis" >
     <v>       0.06798532       0.03925951       0.00000000 </v>
     <v>      -0.00002539       0.07856300       0.00000000 </v>
     <v>       0.00000000       0.00000000       0.05000000 </v>
    </varray>
   </crystal>
   <varray name="positions" >
    <v>       0.75170786       0.38009990       0.48696628 </v>
    <v>       0.69661108       0.43491405       0.48712181 </v>
    <v>       0.69659119       0.27016673       0.48709015 </v>
    <v>       0.86868513       0.43857767       0.48635822 </v>
    <v>       0.92683714       0.46742392       0.54613767 </v>
    <v>       0.58676675       0.38017416       0.48712655 </v>
    <v>       0.58674393       0.21503207       0.48707785 </v>
    <v>       0.53205768       0.27025276       0.48723461 </v>
    <v>       0.52805527       0.09795072       0.48648258 </v>
    <v>       0.52812847       0.43859346       0.48657027 </v>
    <v>       0.49860172       0.03970456       0.54624460 </v>
    <v>       0.49895816       0.46763690       0.54633765 </v>
    <v>       0.19825872       0.60325150       0.48747367 </v>
    <v>       0.25334274       0.54848144       0.48743774 </v>
    <v>       0.36313809       0.60330979       0.48753451 </v>
    <v>       0.41788555       0.71318530       0.48739522 </v>
    <v>       0.36304115       0.76819884       0.48746619 </v>
    <v>       0.25324938       0.71312674       0.48740389 </v>
    <v>       0.42140733       0.88519858       0.48768720 </v>
    <v>       0.45077474       0.94393327       0.42758098 </v>
    <v>       0.42435047       0.89195483       0.36382725 </v>
    <v>       0.42157425       0.54476197       0.48778122 </v>
    <v>       0.45075803       0.51523255       0.42767782 </v>
    <v>       0.42435185       0.54079309       0.36392411 </v>
    <v>       0.08131887       0.54472770       0.48764454 </v>
    <v>       0.02265264       0.51561856       0.42754281 </v>
    <v>       0.07435015       0.54147687       0.36374697 </v>
    <v>       0.91696225       0.46283967       0.42687745 </v>
    <v>       0.50388174       0.04970424       0.42697595 </v>
    <v>       0.50375109       0.46248270       0.42707866 </v>
    <v>       0.40222371       0.84888260       0.31226896 </v>
    <v>       0.40237828       0.56187025       0.31236524 </v>
    <v>       0.11661566       0.56246911       0.31194243 </v>
    <v>       0.44596594       0.93464681       0.54694222 </v>
    <v>       0.44635267       0.52005863       0.54702266 </v>
    <v>       0.03178631       0.51973190       0.54685584 </v>
    <v>       0.73943190       0.22730919       0.48621822 </v>
    <v>       0.73946161       0.52062992       0.48624957 </v>
    <v>       0.88719018       0.44757717       0.59462321 </v>
    <v>       0.50352972       0.75607636       0.48736909 </v>
    <v>       0.51824495       0.07935885       0.59473833 </v>
    <v>       0.51876849       0.44781648       0.59483715 </v>
    <v>       0.44640590       0.22743023       0.48643009 </v>
    <v>       0.21043606       0.75600786       0.48744105 </v>
    <v>       0.21055021       0.46277710       0.48745051 </v>
   </varray>
  </structure>
  <varray name="forces" >
   <v>       0.00026405       0.00214676       0.00196383 </v>
   <v>       0.00131834       0.00149756       0.00127772 </v>
   <v>       0.00304254      -0.00076433       0.00115528 </v>
   <v>      -0.00222986      -0.00108778      -0.00003242 </v>
   <v>       0.00203558      -0.00088420       0.00188785 </v>
   <v>      -0.00079416      -0.00604490       0.00088023 </v>
   <v>      -0.00768801       0.00182215       0.00192967 </v>
   <v>       0.00672802       0.00410699       0.00194054 </v>
   <v>      -0.00134900      -0.00181871       0.00107732 </v>
   <v>      -0.00345395       0.00099643       0.00021157 </v>
   <v>       0.00018433      -0.00039486       0.00114410 </v>
   <v>      -0.00013533       0.00141114      -0.00011129 </v>
   <v>      -0.00101406      -0.00221750      -0.00167703 </v>
   <v>      -0.00007950      -0.00227102      -0.00134562 </v>
   <v>       0.00138500       0.00614402      -0.00067772 </v>
   <v>      -0.00632217      -0.00404882      -0.00117772 </v>
   <v>       0.00718063      -0.00069892      -0.00080991 </v>
   <v>      -0.00390873       0.00143887      -0.00255955 </v>
   <v>       0.00112584       0.00289207      -0.00207964 </v>
   <v>      -0.00092825       0.00128723      -0.00024119 </v>
   <v>      -0.00188395       0.00000176       0.00019445 </v>
   <v>       0.00313784      -0.00010293      -0.00156491 </v>
   <v>      -0.00129275       0.00001589      -0.00028825 </v>
   <v>       0.00293920      -0.00119323       0.00737068 </v>
   <v>       0.00205861       0.00029428       0.00035250 </v>
   <v>      -0.00125422      -0.00059921      -0.00160648 </v>
   <v>      -0.00177061      -0.00093770      -0.00100418 </v>
   <v>       0.00060653       0.00043626       0.00169629 </v>
   <v>       0.00253534       0.00220337      -0.00041527 </v>
   <v>       0.00093622      -0.00165233      -0.00159606 </v>
   <v>      -0.00163721      -0.00096630       0.00167478 </v>
   <v>       0.00093479       0.00400752      -0.00579269 </v>
   <v>      -0.00055701       0.00033323      -0.00063965 </v>
   <v>      -0.00092957      -0.00156100      -0.00014477 </v>
   <v>      -0.00209475      -0.00013951       0.00069646 </v>
   <v>      -0.00072645      -0.00136240      -0.00215026 </v>
   <v>      -0.00025490       0.00075108       0.00044450 </v>
   <v>       0.00049932      -0.00001405       0.00126970 </v>
   <v>       0.00336837      -0.00192453       0.00019846 </v>
   <v>      -0.00078059      -0.00065967      -0.00114437 </v>
   <v>       0.00048369      -0.00166424       0.00090346 </v>
   <v>      -0.00056485       0.00200494       0.00032769 </v>
   <v>       0.00015232       0.00039725       0.00215980 </v>
   <v>       0.00012777      -0.00131133      -0.00305693 </v>
   <v>       0.00060555       0.00013069      -0.00064099 </v>
  </varray>
  <varray name="stress" >
   <v>       0.02165240       0.00084116      -0.02165954 </v>
   <v>       0.00084115       0.01347016      -0.00599989 </v>
   <v>      -0.02165954      -0.00599989      -0.35492116 </v>
  </varray>
  <energy>
   <i name="e_fr_energy">   -345.86684944 </i>
   <i name="e_wo_entrp">   -345.86684944 </i>
   <i name="e_0_energy">     -0.00000000 </i>
  </energy>
  <time name="totalsc">  197.48  198.93</time>
  <eigenvalues>
   <array>
    <dimension dim="1">band</dimension>
    <dimension dim="2">kpoint</dimension>
    <dimension dim="3">spin</dimension>
    <field>eigene</field>
    <field>occ</field>
    <set>
     <set comment="spin 1">
      <set comment="kpoint 1">
       <r>  -25.0458    1.0000 </r>
       <r>  -25.0301    1.0000 </r>
       <r>  -25.0295    1.0000 </r>
       <r>  -23.2135    1.0000 </r>
       <r>  -23.1546    1.0000 </r>
       <r>  -23.1542    1.0000 </r>
       <r>  -22.2716    1.0000 </r>
       <r>  -22.1583    1.0000 </r>
       <r>  -22.1552    1.0000 </r>
       <r>  -21.8768    1.0000 </r>
       <r>  -21.8198    1.0000 </r>
       <r>  -20.6771    1.0000 </r>
       <r>  -20.6763    1.0000 </r>
       <r>  -19.7218    1.0000 </r>
       <r>  -19.5654    1.0000 </r>
       <r>  -19.5652    1.0000 </r>
       <r>  -18.3915    1.0000 </r>
       <r>  -18.3914    1.0000 </r>
       <r>  -17.3058    1.0000 </r>
       <r>  -17.2730    1.0000 </r>
       <r>  -17.2718    1.0000 </r>
       <r>  -16.9178    1.0000 </r>
       <r>  -16.8069    1.0000 </r>
       <r>  -16.8058    1.0000 </r>
       <r>  -15.3964    1.0000 </r>
       <r>  -15.3954    1.0000 </r>
       <r>  -14.8826    1.0000 </r>
       <r>  -14.8811    1.0000 </r>
       <r>  -14.3377    1.0000 </r>
       <r>  -13.5935    1.0000 </r>
       <r>  -13.5903    1.0000 </r>
       <r>  -13.5578    1.0000 </r>
       <r>  -13.5172    1.0000 </r>
       <r>  -13.2981    1.0000 </r>
       <r>  -13.2980    1.0000 </r>
       <r>  -12.6709    1.0000 </r>
       <r>  -12.2847    1.0000 </r>
       <r>  -12.2200    1.0000 </r>
       <r>  -12.0689    1.0000 </r>
       <r>  -12.0681    1.0000 </r>
       <r>  -11.9748    1.0000 </r>
       <r>  -11.6384    1.0000 </r>
       <r>  -11.1177    1.0000 </r>
       <r>  -11.1175    1.0000 </r>
       <r>  -10.6850    1.0000 </r>
       <r>  -10.6838    1.0000 </r>
       <r>  -10.4699    1.0000 </r>
       <r>  -10.4694    1.0000 </r>
       <r>  -10.1886    1.0000 </r>
       <r>  -10.1879    1.0000 </r>
       <r>   -9.4550    1.0000 </r>
       <r>   -9.2976    1.0000 </r>
       <r>   -9.0681    1.0000 </r>
       <r>   -9.0671    1.0000 </r>
       <r>   -9.0437    1.0000 </r>
       <r>   -9.0434    1.0000 </r>
       <r>   -8.9626    1.0000 </r>
       <r>   -8.8605    1.0000 </r>
       <r>   -8.8597    1.0000 </r>
       <r>   -8.1677    1.0000 </r>
       <r>   -8.1653    1.0000 </r>
       <r>   -8.1621    1.0000 </r>
       <r>   -8.0418    1.0000 </r>
       <r>   -8.0343    1.0000 </r>
       <r>   -8.0234    1.0000 </r>
       <r>   -8.0227    1.0000 </r>
       <r>   -8.0157    1.0000 </r>
       <r>   -8.0078    1.0000 </r>
       <r>   -7.5031    1.0000 </r>
       <r>   -7.4995    1.0000 </r>
       <r>   -7.3329    1.0000 </r>
       <r>   -6.9075    1.0000 </r>
       <r>   -6.9056    1.0000 </r>
       <r>   -6.7537    1.0000 </r>
       <r>   -6.7534    1.0000 </r>
       <r>   -6.6863    1.0000 </r>
       <r>   -6.4881    1.0000 </r>
       <r>   -6.4871    1.0000 </r>
       <r>   -6.1668    1.0000 </r>
       <r>   -5.9605    1.0000 </r>
       <r>   -5.9584    1.0000 </r>
       <r>   -3.0534    0.0000 </r>
       <r>   -3.0517    0.0000 </r>
       <r>   -2.9745    0.0000 </r>
       <r>   -2.4898    0.0000 </r>
       <r>   -2.4880    0.0000 </r>
       <r>   -2.1125    0.0000 </r>
       <r>   -1.7829    0.0000 </r>
       <r>   -1.7828    0.0000 </r>
       <r>   -1.4877    0.0000 </r>
       <r>   -1.4862    0.0000 </r>
       <r>   -0.5293    0.0000 </r>
       <r>   -0.1934    0.0000 </r>
       <r>   -0.0101    0.0000 </r>
       <r>   -0.0019    0.0000 </r>
       <r>    0.0314    0.0000 </r>
       <r>    0.2516    0.0000 </r>
       <r>    0.2542    0.0000 </r>
       <r>    0.3983    0.0000 </r>
       <r>    0.4012    0.0000 </r>
       <r>    0.4300    0.0000 </r>
       <r>    0.4313    0.0000 </r>
       <r>    0.5805    0.0000 </r>
       <r>    0.6474    0.0000 </r>
       <r>    0.7369    0.0000 </r>
       <r>    1.0032    0.0000 </r>
       <r>    1.0035    0.0000 </r>
       <r>    1.0440    0.0000 </r>
       <r>    1.2252    0.0000 </r>
       <r>    1.4093    0.0000 </r>
       <r>    1.4112    0.0000 </r>
       <r>    1.4979    0.0000 </r>
      </set>
      <set comment="kpoint 2">
       <r>  -25.0458    1.0000 </r>
       <r>  -25.0302    1.0000 </r>
       <r>  -25.0295    1.0000 </r>
       <r>  -23.2135    1.0000 </r>
       <r>  -23.1547    1.0000 </r>
       <r>  -23.1543    1.0000 </r>
       <r>  -22.2715    1.0000 </r>
       <r>  -22.1583    1.0000 </r>
       <r>  -22.1554    1.0000 </r>
       <r>  -21.8768    1.0000 </r>
       <r>  -21.8198    1.0000 </r>
       <r>  -20.6770    1.0000 </r>
       <r>  -20.6756    1.0000 </r>
       <r>  -19.7316    1.0000 </r>
       <r>  -19.5653    1.0000 </r>
       <r>  -19.5553    1.0000 </r>
       <r>  -18.3927    1.0000 </r>
       <r>  -18.3915    1.0000 </r>
       <r>  -17.3057    1.0000 </r>
       <r>  -17.2730    1.0000 </r>
       <r>  -17.2719    1.0000 </r>
       <r>  -16.9175    1.0000 </r>
       <r>  -16.8069    1.0000 </r>
       <r>  -16.8059    1.0000 </r>
       <r>  -15.3963    1.0000 </r>
       <r>  -15.3947    1.0000 </r>
       <r>  -14.8831    1.0000 </r>
       <r>  -14.8811    1.0000 </r>
       <r>  -14.3377    1.0000 </r>
       <r>  -13.5936    1.0000 </r>
       <r>  -13.5919    1.0000 </r>
       <r>  -13.5577    1.0000 </r>
       <r>  -13.5169    1.0000 </r>
       <r>  -13.2981    1.0000 </r>
       <r>  -13.2972    1.0000 </r>
       <r>  -12.6709    1.0000 </r>
       <r>  -12.2843    1.0000 </r>
       <r>  -12.2200    1.0000 </r>
       <r>  -12.0691    1.0000 </r>
       <r>  -12.0682    1.0000 </r>
       <r>  -11.9755    1.0000 </r>
       <r>  -11.6373    1.0000 </r>
       <r>  -11.1176    1.0000 </r>
       <r>  -11.1163    1.0000 </r>
       <r>  -10.6860    1.0000 </r>
       <r>  -10.6851    1.0000 </r>
       <r>  -10.4705    1.0000 </r>
       <r>  -10.4681    1.0000 </r>
       <r>  -10.1887    1.0000 </r>
       <r>  -10.1879    1.0000 </r>
       <r>   -9.4549    1.0000 </r>
       <r>   -9.2979    1.0000 </r>
       <r>   -9.0684    1.0000 </r>
       <r>   -9.0672    1.0000 </r>
       <r>   -9.0434    1.0000 </r>
       <r>   -9.0432    1.0000 </r>
       <r>   -8.9625    1.0000 </r>
       <r>   -8.8604    1.0000 </r>
       <r>   -8.8597    1.0000 </r>
       <r>   -8.1679    1.0000 </r>
       <r>   -8.1651    1.0000 </r>
       <r>   -8.1617    1.0000 </r>
       <r>   -8.0419    1.0000 </r>
       <r>   -8.0346    1.0000 </r>
       <r>   -8.0235    1.0000 </r>
       <r>   -8.0227    1.0000 </r>
       <r>   -8.0155    1.0000 </r>
       <r>   -8.0080    1.0000 </r>
       <r>   -7.5031    1.0000 </r>
       <r>   -7.4994    1.0000 </r>
       <r>   -7.3332    1.0000 </r>
       <r>   -6.9075    1.0000 </r>
       <r>   -6.9053    1.0000 </r>
       <r>   -6.7537    1.0000 </r>
       <r>   -6.7531    1.0000 </r>
       <r>   -6.6866    1.0000 </r>
       <r>   -6.4884    1.0000 </r>
       <r>   -6.4871    1.0000 </r>
       <r>   -6.1664    1.0000 </r>
       <r>   -5.9606    1.0000 </r>
       <r>   -5.9588    1.0000 </r>
       <r>   -3.0535    0.0000 </r>
       <r>   -3.0516    0.0000 </r>
       <r>   -2.9746    0.0000 </r>
       <r>   -2.4898    0.0000 </r>
       <r>   -2.4875    0.0000 </r>
       <r>   -2.1130    0.0000 </r>
       <r>   -1.7825    0.0000 </r>
       <r>   -1.7823    0.0000 </r>
       <r>   -1.4882    0.0000 </r>
       <r>   -1.4865    0.0000 </r>
       <r>   -0.5287    0.0000 </r>
       <r>   -0.1932    0.0000 </r>
       <r>   -0.0102    0.0000 </r>
       <r>   -0.0027    0.0000 </r>
       <r>    0.0317    0.0000 </r>
       <r>    0.2503    0.0000 </r>
       <r>    0.2535    0.0000 </r>
       <r>    0.3927    0.0000 </r>
       <r>    0.3971    0.0000 </r>
       <r>    0.4347    0.0000 </r>
       <r>    0.4375    0.0000 </r>
       <r>    0.5802    0.0000 </r>
       <r>    0.6491    0.0000 </r>
       <r>    0.7389    0.0000 </r>
       <r>    0.9929    0.0000 </r>
       <r>    1.0028    0.0000 </r>
       <r>    1.0520    0.0000 </r>
       <r>    1.2280    0.0000 </r>
       <r>    1.4084    0.0000 </r>
       <r>    1.4127    0.0000 </r>
       <r>    1.5010    0.0000 </r>
      </set>
      <set comment="kpoint 3">
       <r>  -25.0457    1.0000 </r>
       <r>  -25.0302    1.0000 </r>
       <r>  -25.0296    1.0000 </r>
       <r>  -23.2132    1.0000 </r>
       <r>  -23.1547    1.0000 </r>
       <r>  -23.1545    1.0000 </r>
       <r>  -22.2711    1.0000 </r>
       <r>  -22.1583    1.0000 </r>
       <r>  -22.1561    1.0000 </r>
       <r>  -21.8767    1.0000 </r>
       <r>  -21.8198    1.0000 </r>
       <r>  -20.6769    1.0000 </r>
       <r>  -20.6731    1.0000 </r>
       <r>  -19.7558    1.0000 </r>
       <r>  -19.5653    1.0000 </r>
       <r>  -19.5303    1.0000 </r>
       <r>  -18.3965    1.0000 </r>
       <r>  -18.3915    1.0000 </r>
       <r>  -17.3057    1.0000 </r>
       <r>  -17.2730    1.0000 </r>
       <r>  -17.2721    1.0000 </r>
       <r>  -16.9166    1.0000 </r>
       <r>  -16.8069    1.0000 </r>
       <r>  -16.8062    1.0000 </r>
       <r>  -15.3962    1.0000 </r>
       <r>  -15.3924    1.0000 </r>
       <r>  -14.8848    1.0000 </r>
       <r>  -14.8812    1.0000 </r>
       <r>  -14.3376    1.0000 </r>
       <r>  -13.5965    1.0000 </r>
       <r>  -13.5935    1.0000 </r>
       <r>  -13.5574    1.0000 </r>
       <r>  -13.5160    1.0000 </r>
       <r>  -13.2981    1.0000 </r>
       <r>  -13.2945    1.0000 </r>
       <r>  -12.6709    1.0000 </r>
       <r>  -12.2833    1.0000 </r>
       <r>  -12.2200    1.0000 </r>
       <r>  -12.0699    1.0000 </r>
       <r>  -12.0686    1.0000 </r>
       <r>  -11.9774    1.0000 </r>
       <r>  -11.6341    1.0000 </r>
       <r>  -11.1173    1.0000 </r>
       <r>  -11.1128    1.0000 </r>
       <r>  -10.6921    1.0000 </r>
       <r>  -10.6856    1.0000 </r>
       <r>  -10.4729    1.0000 </r>
       <r>  -10.4640    1.0000 </r>
       <r>  -10.1890    1.0000 </r>
       <r>  -10.1879    1.0000 </r>
       <r>   -9.4545    1.0000 </r>
       <r>   -9.2986    1.0000 </r>
       <r>   -9.0693    1.0000 </r>
       <r>   -9.0676    1.0000 </r>
       <r>   -9.0427    1.0000 </r>
       <r>   -9.0427    1.0000 </r>
       <r>   -8.9624    1.0000 </r>
       <r>   -8.8601    1.0000 </r>
       <r>   -8.8596    1.0000 </r>
       <r>   -8.1685    1.0000 </r>
       <r>   -8.1642    1.0000 </r>
       <r>   -8.1608    1.0000 </r>
       <r>   -8.0419    1.0000 </r>
       <r>   -8.0352    1.0000 </r>
       <r>   -8.0235    1.0000 </r>
       <r>   -8.0228    1.0000 </r>
       <r>   -8.0148    1.0000 </r>
       <r>   -8.0084    1.0000 </r>
       <r>   -7.5031    1.0000 </r>
       <r>   -7.4990    1.0000 </r>
       <r>   -7.3340    1.0000 </r>
       <r>   -6.9074    1.0000 </r>
       <r>   -6.9043    1.0000 </r>
       <r>   -6.7538    1.0000 </r>
       <r>   -6.7520    1.0000 </r>
       <r>   -6.6875    1.0000 </r>
       <r>   -6.4892    1.0000 </r>
       <r>   -6.4870    1.0000 </r>
       <r>   -6.1654    1.0000 </r>
       <r>   -5.9610    1.0000 </r>
       <r>   -5.9596    1.0000 </r>
       <r>   -3.0536    0.0000 </r>
       <r>   -3.0514    0.0000 </r>
       <r>   -2.9750    0.0000 </r>
       <r>   -2.4897    0.0000 </r>
       <r>   -2.4859    0.0000 </r>
       <r>   -2.1148    0.0000 </r>
       <r>   -1.7814    0.0000 </r>
       <r>   -1.7810    0.0000 </r>
       <r>   -1.4898    0.0000 </r>
       <r>   -1.4875    0.0000 </r>
       <r>   -0.5268    0.0000 </r>
       <r>   -0.1927    0.0000 </r>
       <r>   -0.0106    0.0000 </r>
       <r>   -0.0048    0.0000 </r>
       <r>    0.0324    0.0000 </r>
       <r>    0.2464    0.0000 </r>
       <r>    0.2513    0.0000 </r>
       <r>    0.3811    0.0000 </r>
       <r>    0.3898    0.0000 </r>
       <r>    0.4433    0.0000 </r>
       <r>    0.4513    0.0000 </r>
       <r>    0.5794    0.0000 </r>
       <r>    0.6540    0.0000 </r>
       <r>    0.7451    0.0000 </r>
       <r>    0.9721    0.0000 </r>
       <r>    1.0009    0.0000 </r>
       <r>    1.0661    0.0000 </r>
       <r>    1.2356    0.0000 </r>
       <r>    1.4054    0.0000 </r>
       <r>    1.4171    0.0000 </r>
       <r>    1.4993    0.0000 </r>
      </set>
      <set comment="kpoint 4">
       <r>  -25.0456    1.0000 </r>
       <r>  -25.0302    1.0000 </r>
       <r>  -25.0296    1.0000 </r>
       <r>  -23.2127    1.0000 </r>
       <r>  -23.1550    1.0000 </r>
       <r>  -23.1546    1.0000 </r>
       <r>  -22.2705    1.0000 </r>
       <r>  -22.1583    1.0000 </r>
       <r>  -22.1572    1.0000 </r>
       <r>  -21.8766    1.0000 </r>
       <r>  -21.8198    1.0000 </r>
       <r>  -20.6769    1.0000 </r>
       <r>  -20.6689    1.0000 </r>
       <r>  -19.7871    1.0000 </r>
       <r>  -19.5653    1.0000 </r>
       <r>  -19.4978    1.0000 </r>
       <r>  -18.4029    1.0000 </r>
       <r>  -18.3915    1.0000 </r>
       <r>  -17.3056    1.0000 </r>
       <r>  -17.2730    1.0000 </r>
       <r>  -17.2725    1.0000 </r>
       <r>  -16.9151    1.0000 </r>
       <r>  -16.8070    1.0000 </r>
       <r>  -16.8067    1.0000 </r>
       <r>  -15.3960    1.0000 </r>
       <r>  -15.3886    1.0000 </r>
       <r>  -14.8874    1.0000 </r>
       <r>  -14.8813    1.0000 </r>
       <r>  -14.3374    1.0000 </r>
       <r>  -13.6035    1.0000 </r>
       <r>  -13.5936    1.0000 </r>
       <r>  -13.5569    1.0000 </r>
       <r>  -13.5150    1.0000 </r>
       <r>  -13.2982    1.0000 </r>
       <r>  -13.2902    1.0000 </r>
       <r>  -12.6709    1.0000 </r>
       <r>  -12.2817    1.0000 </r>
       <r>  -12.2199    1.0000 </r>
       <r>  -12.0713    1.0000 </r>
       <r>  -12.0689    1.0000 </r>
       <r>  -11.9806    1.0000 </r>
       <r>  -11.6288    1.0000 </r>
       <r>  -11.1168    1.0000 </r>
       <r>  -11.1070    1.0000 </r>
       <r>  -10.7019    1.0000 </r>
       <r>  -10.6863    1.0000 </r>
       <r>  -10.4770    1.0000 </r>
       <r>  -10.4575    1.0000 </r>
       <r>  -10.1897    1.0000 </r>
       <r>  -10.1879    1.0000 </r>
       <r>   -9.4539    1.0000 </r>
       <r>   -9.2998    1.0000 </r>
       <r>   -9.0707    1.0000 </r>
       <r>   -9.0682    1.0000 </r>
       <r>   -9.0418    1.0000 </r>
       <r>   -9.0416    1.0000 </r>
       <r>   -8.9622    1.0000 </r>
       <r>   -8.8597    1.0000 </r>
       <r>   -8.8594    1.0000 </r>
       <r>   -8.1691    1.0000 </r>
       <r>   -8.1629    1.0000 </r>
       <r>   -8.1596    1.0000 </r>
       <r>   -8.0420    1.0000 </r>
       <r>   -8.0361    1.0000 </r>
       <r>   -8.0237    1.0000 </r>
       <r>   -8.0229    1.0000 </r>
       <r>   -8.0137    1.0000 </r>
       <r>   -8.0092    1.0000 </r>
       <r>   -7.5030    1.0000 </r>
       <r>   -7.4985    1.0000 </r>
       <r>   -7.3355    1.0000 </r>
       <r>   -6.9072    1.0000 </r>
       <r>   -6.9028    1.0000 </r>
       <r>   -6.7539    1.0000 </r>
       <r>   -6.7501    1.0000 </r>
       <r>   -6.6890    1.0000 </r>
       <r>   -6.4906    1.0000 </r>
       <r>   -6.4869    1.0000 </r>
       <r>   -6.1638    1.0000 </r>
       <r>   -5.9620    1.0000 </r>
       <r>   -5.9607    1.0000 </r>
       <r>   -3.0538    0.0000 </r>
       <r>   -3.0510    0.0000 </r>
       <r>   -2.9757    0.0000 </r>
       <r>   -2.4897    0.0000 </r>
       <r>   -2.4831    0.0000 </r>
       <r>   -2.1176    0.0000 </r>
       <r>   -1.7795    0.0000 </r>
       <r>   -1.7787    0.0000 </r>
       <r>   -1.4924    0.0000 </r>
       <r>   -1.4892    0.0000 </r>
       <r>   -0.5238    0.0000 </r>
       <r>   -0.1918    0.0000 </r>
       <r>   -0.0112    0.0000 </r>
       <r>   -0.0083    0.0000 </r>
       <r>    0.0336    0.0000 </r>
       <r>    0.2399    0.0000 </r>
       <r>    0.2479    0.0000 </r>
       <r>    0.3689    0.0000 </r>
       <r>    0.3832    0.0000 </r>
       <r>    0.4512    0.0000 </r>
       <r>    0.4686    0.0000 </r>
       <r>    0.5781    0.0000 </r>
       <r>    0.6611    0.0000 </r>
       <r>    0.7557    0.0000 </r>
       <r>    0.9481    0.0000 </r>
       <r>    0.9978    0.0000 </r>
       <r>    1.0798    0.0000 </r>
       <r>    1.2468    0.0000 </r>
       <r>    1.4034    0.0000 </r>
       <r>    1.4369    0.0000 </r>
       <r>    1.5425    0.0000 </r>
      </set>
      <set comment="kpoint 5">
       <r>  -25.0455    1.0000 </r>
       <r>  -25.0303    1.0000 </r>
       <r>  -25.0297    1.0000 </r>
       <r>  -23.2121    1.0000 </r>
       <r>  -23.1556    1.0000 </r>
       <r>  -23.1546    1.0000 </r>
       <r>  -22.2695    1.0000 </r>
       <r>  -22.1588    1.0000 </r>
       <r>  -22.1582    1.0000 </r>
       <r>  -21.8764    1.0000 </r>
       <r>  -21.8198    1.0000 </r>
       <r>  -20.6769    1.0000 </r>
       <r>  -20.6631    1.0000 </r>
       <r>  -19.8213    1.0000 </r>
       <r>  -19.5653    1.0000 </r>
       <r>  -19.4617    1.0000 </r>
       <r>  -18.4117    1.0000 </r>
       <r>  -18.3914    1.0000 </r>
       <r>  -17.3054    1.0000 </r>
       <r>  -17.2731    1.0000 </r>
       <r>  -17.2730    1.0000 </r>
       <r>  -16.9130    1.0000 </r>
       <r>  -16.8074    1.0000 </r>
       <r>  -16.8071    1.0000 </r>
       <r>  -15.3957    1.0000 </r>
       <r>  -15.3833    1.0000 </r>
       <r>  -14.8912    1.0000 </r>
       <r>  -14.8815    1.0000 </r>
       <r>  -14.3372    1.0000 </r>
       <r>  -13.6124    1.0000 </r>
       <r>  -13.5936    1.0000 </r>
       <r>  -13.5563    1.0000 </r>
       <r>  -13.5139    1.0000 </r>
       <r>  -13.2983    1.0000 </r>
       <r>  -13.2845    1.0000 </r>
       <r>  -12.6708    1.0000 </r>
       <r>  -12.2794    1.0000 </r>
       <r>  -12.2197    1.0000 </r>
       <r>  -12.0734    1.0000 </r>
       <r>  -12.0694    1.0000 </r>
       <r>  -11.9850    1.0000 </r>
       <r>  -11.6217    1.0000 </r>
       <r>  -11.1161    1.0000 </r>
       <r>  -11.0990    1.0000 </r>
       <r>  -10.7146    1.0000 </r>
       <r>  -10.6873    1.0000 </r>
       <r>  -10.4826    1.0000 </r>
       <r>  -10.4493    1.0000 </r>
       <r>  -10.1906    1.0000 </r>
       <r>  -10.1877    1.0000 </r>
       <r>   -9.4530    1.0000 </r>
       <r>   -9.3015    1.0000 </r>
       <r>   -9.0723    1.0000 </r>
       <r>   -9.0689    1.0000 </r>
       <r>   -9.0406    1.0000 </r>
       <r>   -9.0402    1.0000 </r>
       <r>   -8.9620    1.0000 </r>
       <r>   -8.8596    1.0000 </r>
       <r>   -8.8588    1.0000 </r>
       <r>   -8.1699    1.0000 </r>
       <r>   -8.1610    1.0000 </r>
       <r>   -8.1581    1.0000 </r>
       <r>   -8.0422    1.0000 </r>
       <r>   -8.0372    1.0000 </r>
       <r>   -8.0239    1.0000 </r>
       <r>   -8.0232    1.0000 </r>
       <r>   -8.0123    1.0000 </r>
       <r>   -8.0102    1.0000 </r>
       <r>   -7.5030    1.0000 </r>
       <r>   -7.4976    1.0000 </r>
       <r>   -7.3374    1.0000 </r>
       <r>   -6.9070    1.0000 </r>
       <r>   -6.9007    1.0000 </r>
       <r>   -6.7542    1.0000 </r>
       <r>   -6.7475    1.0000 </r>
       <r>   -6.6911    1.0000 </r>
       <r>   -6.4924    1.0000 </r>
       <r>   -6.4866    1.0000 </r>
       <r>   -6.1615    1.0000 </r>
       <r>   -5.9641    1.0000 </r>
       <r>   -5.9614    1.0000 </r>
       <r>   -3.0541    0.0000 </r>
       <r>   -3.0504    0.0000 </r>
       <r>   -2.9767    0.0000 </r>
       <r>   -2.4896    0.0000 </r>
       <r>   -2.4794    0.0000 </r>
       <r>   -2.1216    0.0000 </r>
       <r>   -1.7769    0.0000 </r>
       <r>   -1.7756    0.0000 </r>
       <r>   -1.4960    0.0000 </r>
       <r>   -1.4915    0.0000 </r>
       <r>   -0.5195    0.0000 </r>
       <r>   -0.1907    0.0000 </r>
       <r>   -0.0132    0.0000 </r>
       <r>   -0.0119    0.0000 </r>
       <r>    0.0349    0.0000 </r>
       <r>    0.2309    0.0000 </r>
       <r>    0.2434    0.0000 </r>
       <r>    0.3579    0.0000 </r>
       <r>    0.3783    0.0000 </r>
       <r>    0.4574    0.0000 </r>
       <r>    0.4881    0.0000 </r>
       <r>    0.5764    0.0000 </r>
       <r>    0.6694    0.0000 </r>
       <r>    0.7708    0.0000 </r>
       <r>    0.9232    0.0000 </r>
       <r>    0.9938    0.0000 </r>
       <r>    1.0923    0.0000 </r>
       <r>    1.2591    0.0000 </r>
       <r>    1.4003    0.0000 </r>
       <r>    1.4450    0.0000 </r>
       <r>    1.5118    0.0000 </r>
      </set>
      <set comment="kpoint 6">
       <r>  -25.0452    1.0000 </r>
       <r>  -25.0305    1.0000 </r>
       <r>  -25.0298    1.0000 </r>
       <r>  -23.2113    1.0000 </r>
       <r>  -23.1564    1.0000 </r>
       <r>  -23.1546    1.0000 </r>
       <r>  -22.2684    1.0000 </r>
       <r>  -22.1607    1.0000 </r>
       <r>  -22.1583    1.0000 </r>
       <r>  -21.8763    1.0000 </r>
       <r>  -21.8198    1.0000 </r>
       <r>  -20.6769    1.0000 </r>
       <r>  -20.6558    1.0000 </r>
       <r>  -19.8568    1.0000 </r>
       <r>  -19.5653    1.0000 </r>
       <r>  -19.4239    1.0000 </r>
       <r>  -18.4228    1.0000 </r>
       <r>  -18.3914    1.0000 </r>
       <r>  -17.3052    1.0000 </r>
       <r>  -17.2738    1.0000 </r>
       <r>  -17.2730    1.0000 </r>
       <r>  -16.9105    1.0000 </r>
       <r>  -16.8083    1.0000 </r>
       <r>  -16.8072    1.0000 </r>
       <r>  -15.3953    1.0000 </r>
       <r>  -15.3767    1.0000 </r>
       <r>  -14.8959    1.0000 </r>
       <r>  -14.8817    1.0000 </r>
       <r>  -14.3370    1.0000 </r>
       <r>  -13.6227    1.0000 </r>
       <r>  -13.5937    1.0000 </r>
       <r>  -13.5556    1.0000 </r>
       <r>  -13.5130    1.0000 </r>
       <r>  -13.2984    1.0000 </r>
       <r>  -13.2778    1.0000 </r>
       <r>  -12.6708    1.0000 </r>
       <r>  -12.2765    1.0000 </r>
       <r>  -12.2196    1.0000 </r>
       <r>  -12.0759    1.0000 </r>
       <r>  -12.0700    1.0000 </r>
       <r>  -11.9903    1.0000 </r>
       <r>  -11.6128    1.0000 </r>
       <r>  -11.1151    1.0000 </r>
       <r>  -11.0890    1.0000 </r>
       <r>  -10.7297    1.0000 </r>
       <r>  -10.6888    1.0000 </r>
       <r>  -10.4896    1.0000 </r>
       <r>  -10.4400    1.0000 </r>
       <r>  -10.1918    1.0000 </r>
       <r>  -10.1876    1.0000 </r>
       <r>   -9.4519    1.0000 </r>
       <r>   -9.3036    1.0000 </r>
       <r>   -9.0742    1.0000 </r>
       <r>   -9.0698    1.0000 </r>
       <r>   -9.0393    1.0000 </r>
       <r>   -9.0387    1.0000 </r>
       <r>   -8.9616    1.0000 </r>
       <r>   -8.8595    1.0000 </r>
       <r>   -8.8580    1.0000 </r>
       <r>   -8.1705    1.0000 </r>
       <r>   -8.1586    1.0000 </r>
       <r>   -8.1564    1.0000 </r>
       <r>   -8.0424    1.0000 </r>
       <r>   -8.0384    1.0000 </r>
       <r>   -8.0243    1.0000 </r>
       <r>   -8.0235    1.0000 </r>
       <r>   -8.0114    1.0000 </r>
       <r>   -8.0107    1.0000 </r>
       <r>   -7.5029    1.0000 </r>
       <r>   -7.4966    1.0000 </r>
       <r>   -7.3398    1.0000 </r>
       <r>   -6.9067    1.0000 </r>
       <r>   -6.8980    1.0000 </r>
       <r>   -6.7545    1.0000 </r>
       <r>   -6.7443    1.0000 </r>
       <r>   -6.6937    1.0000 </r>
       <r>   -6.4947    1.0000 </r>
       <r>   -6.4864    1.0000 </r>
       <r>   -6.1586    1.0000 </r>
       <r>   -5.9670    1.0000 </r>
       <r>   -5.9621    1.0000 </r>
       <r>   -3.0545    0.0000 </r>
       <r>   -3.0497    0.0000 </r>
       <r>   -2.9780    0.0000 </r>
       <r>   -2.4894    0.0000 </r>
       <r>   -2.4746    0.0000 </r>
       <r>   -2.1266    0.0000 </r>
       <r>   -1.7736    0.0000 </r>
       <r>   -1.7716    0.0000 </r>
       <r>   -1.5007    0.0000 </r>
       <r>   -1.4943    0.0000 </r>
       <r>   -0.5141    0.0000 </r>
       <r>   -0.1894    0.0000 </r>
       <r>   -0.0191    0.0000 </r>
       <r>   -0.0129    0.0000 </r>
       <r>    0.0361    0.0000 </r>
       <r>    0.2200    0.0000 </r>
       <r>    0.2381    0.0000 </r>
       <r>    0.3488    0.0000 </r>
       <r>    0.3753    0.0000 </r>
       <r>    0.4620    0.0000 </r>
       <r>    0.5092    0.0000 </r>
       <r>    0.5743    0.0000 </r>
       <r>    0.6779    0.0000 </r>
       <r>    0.7902    0.0000 </r>
       <r>    0.8985    0.0000 </r>
       <r>    0.9889    0.0000 </r>
       <r>    1.1037    0.0000 </r>
       <r>    1.2695    0.0000 </r>
       <r>    1.4000    0.0000 </r>
       <r>    1.4500    0.0000 </r>
       <r>    1.4723    0.0000 </r>
      </set>
      <set comment="kpoint 7">
       <r>  -25.0450    1.0000 </r>
       <r>  -25.0307    1.0000 </r>
       <r>  -25.0298    1.0000 </r>
       <r>  -23.2104    1.0000 </r>
       <r>  -23.1573    1.0000 </r>
       <r>  -23.1546    1.0000 </r>
       <r>  -22.2670    1.0000 </r>
       <r>  -22.1629    1.0000 </r>
       <r>  -22.1583    1.0000 </r>
       <r>  -21.8760    1.0000 </r>
       <r>  -21.8199    1.0000 </r>
       <r>  -20.6769    1.0000 </r>
       <r>  -20.6468    1.0000 </r>
       <r>  -19.8928    1.0000 </r>
       <r>  -19.5653    1.0000 </r>
       <r>  -19.3852    1.0000 </r>
       <r>  -18.4362    1.0000 </r>
       <r>  -18.3914    1.0000 </r>
       <r>  -17.3050    1.0000 </r>
       <r>  -17.2746    1.0000 </r>
       <r>  -17.2730    1.0000 </r>
       <r>  -16.9075    1.0000 </r>
       <r>  -16.8094    1.0000 </r>
       <r>  -16.8074    1.0000 </r>
       <r>  -15.3949    1.0000 </r>
       <r>  -15.3688    1.0000 </r>
       <r>  -14.9017    1.0000 </r>
       <r>  -14.8820    1.0000 </r>
       <r>  -14.3366    1.0000 </r>
       <r>  -13.6339    1.0000 </r>
       <r>  -13.5937    1.0000 </r>
       <r>  -13.5547    1.0000 </r>
       <r>  -13.5125    1.0000 </r>
       <r>  -13.2986    1.0000 </r>
       <r>  -13.2704    1.0000 </r>
       <r>  -12.6708    1.0000 </r>
       <r>  -12.2729    1.0000 </r>
       <r>  -12.2194    1.0000 </r>
       <r>  -12.0787    1.0000 </r>
       <r>  -12.0708    1.0000 </r>
       <r>  -11.9965    1.0000 </r>
       <r>  -11.6023    1.0000 </r>
       <r>  -11.1139    1.0000 </r>
       <r>  -11.0770    1.0000 </r>
       <r>  -10.7466    1.0000 </r>
       <r>  -10.6907    1.0000 </r>
       <r>  -10.4979    1.0000 </r>
       <r>  -10.4299    1.0000 </r>
       <r>  -10.1932    1.0000 </r>
       <r>  -10.1874    1.0000 </r>
       <r>   -9.4506    1.0000 </r>
       <r>   -9.3061    1.0000 </r>
       <r>   -9.0762    1.0000 </r>
       <r>   -9.0706    1.0000 </r>
       <r>   -9.0379    1.0000 </r>
       <r>   -9.0371    1.0000 </r>
       <r>   -8.9613    1.0000 </r>
       <r>   -8.8593    1.0000 </r>
       <r>   -8.8570    1.0000 </r>
       <r>   -8.1712    1.0000 </r>
       <r>   -8.1557    1.0000 </r>
       <r>   -8.1546    1.0000 </r>
       <r>   -8.0426    1.0000 </r>
       <r>   -8.0397    1.0000 </r>
       <r>   -8.0248    1.0000 </r>
       <r>   -8.0239    1.0000 </r>
       <r>   -8.0127    1.0000 </r>
       <r>   -8.0091    1.0000 </r>
       <r>   -7.5028    1.0000 </r>
       <r>   -7.4953    1.0000 </r>
       <r>   -7.3427    1.0000 </r>
       <r>   -6.9064    1.0000 </r>
       <r>   -6.8948    1.0000 </r>
       <r>   -6.7549    1.0000 </r>
       <r>   -6.7405    1.0000 </r>
       <r>   -6.6968    1.0000 </r>
       <r>   -6.4975    1.0000 </r>
       <r>   -6.4860    1.0000 </r>
       <r>   -6.1552    1.0000 </r>
       <r>   -5.9706    1.0000 </r>
       <r>   -5.9629    1.0000 </r>
       <r>   -3.0549    0.0000 </r>
       <r>   -3.0488    0.0000 </r>
       <r>   -2.9794    0.0000 </r>
       <r>   -2.4893    0.0000 </r>
       <r>   -2.4688    0.0000 </r>
       <r>   -2.1326    0.0000 </r>
       <r>   -1.7697    0.0000 </r>
       <r>   -1.7668    0.0000 </r>
       <r>   -1.5062    0.0000 </r>
       <r>   -1.4977    0.0000 </r>
       <r>   -0.5075    0.0000 </r>
       <r>   -0.1880    0.0000 </r>
       <r>   -0.0263    0.0000 </r>
       <r>   -0.0141    0.0000 </r>
       <r>    0.0372    0.0000 </r>
       <r>    0.2078    0.0000 </r>
       <r>    0.2323    0.0000 </r>
       <r>    0.3417    0.0000 </r>
       <r>    0.3740    0.0000 </r>
       <r>    0.4651    0.0000 </r>
       <r>    0.5314    0.0000 </r>
       <r>    0.5723    0.0000 </r>
       <r>    0.6856    0.0000 </r>
       <r>    0.8127    0.0000 </r>
       <r>    0.8755    0.0000 </r>
       <r>    0.9836    0.0000 </r>
       <r>    1.1142    0.0000 </r>
       <r>    1.2749    0.0000 </r>
       <r>    1.4032    0.0000 </r>
       <r>    1.4431    0.0000 </r>
       <r>    1.4599    0.0000 </r>
      </set>
      <set comment="kpoint 8">
       <r>  -25.0447    1.0000 </r>
       <r>  -25.0309    1.0000 </r>
       <r>  -25.0299    1.0000 </r>
       <r>  -23.2093    1.0000 </r>
       <r>  -23.1583    1.0000 </r>
       <r>  -23.1546    1.0000 </r>
       <r>  -22.2653    1.0000 </r>
       <r>  -22.1655    1.0000 </r>
       <r>  -22.1583    1.0000 </r>
       <r>  -21.8758    1.0000 </r>
       <r>  -21.8199    1.0000 </r>
       <r>  -20.6769    1.0000 </r>
       <r>  -20.6365    1.0000 </r>
       <r>  -19.9286    1.0000 </r>
       <r>  -19.5653    1.0000 </r>
       <r>  -19.3461    1.0000 </r>
       <r>  -18.4518    1.0000 </r>
       <r>  -18.3913    1.0000 </r>
       <r>  -17.3047    1.0000 </r>
       <r>  -17.2755    1.0000 </r>
       <r>  -17.2730    1.0000 </r>
       <r>  -16.9042    1.0000 </r>
       <r>  -16.8107    1.0000 </r>
       <r>  -16.8075    1.0000 </r>
       <r>  -15.3945    1.0000 </r>
       <r>  -15.3598    1.0000 </r>
       <r>  -14.9083    1.0000 </r>
       <r>  -14.8823    1.0000 </r>
       <r>  -14.3363    1.0000 </r>
       <r>  -13.6456    1.0000 </r>
       <r>  -13.5938    1.0000 </r>
       <r>  -13.5537    1.0000 </r>
       <r>  -13.5122    1.0000 </r>
       <r>  -13.2988    1.0000 </r>
       <r>  -13.2626    1.0000 </r>
       <r>  -12.6707    1.0000 </r>
       <r>  -12.2688    1.0000 </r>
       <r>  -12.2192    1.0000 </r>
       <r>  -12.0818    1.0000 </r>
       <r>  -12.0720    1.0000 </r>
       <r>  -12.0033    1.0000 </r>
       <r>  -11.5905    1.0000 </r>
       <r>  -11.1124    1.0000 </r>
       <r>  -11.0632    1.0000 </r>
       <r>  -10.7650    1.0000 </r>
       <r>  -10.6931    1.0000 </r>
       <r>  -10.5072    1.0000 </r>
       <r>  -10.4196    1.0000 </r>
       <r>  -10.1948    1.0000 </r>
       <r>  -10.1871    1.0000 </r>
       <r>   -9.4491    1.0000 </r>
       <r>   -9.3089    1.0000 </r>
       <r>   -9.0782    1.0000 </r>
       <r>   -9.0715    1.0000 </r>
       <r>   -9.0364    1.0000 </r>
       <r>   -9.0356    1.0000 </r>
       <r>   -8.9608    1.0000 </r>
       <r>   -8.8592    1.0000 </r>
       <r>   -8.8559    1.0000 </r>
       <r>   -8.1718    1.0000 </r>
       <r>   -8.1529    1.0000 </r>
       <r>   -8.1522    1.0000 </r>
       <r>   -8.0430    1.0000 </r>
       <r>   -8.0410    1.0000 </r>
       <r>   -8.0255    1.0000 </r>
       <r>   -8.0243    1.0000 </r>
       <r>   -8.0141    1.0000 </r>
       <r>   -8.0074    1.0000 </r>
       <r>   -7.5027    1.0000 </r>
       <r>   -7.4938    1.0000 </r>
       <r>   -7.3460    1.0000 </r>
       <r>   -6.9061    1.0000 </r>
       <r>   -6.8910    1.0000 </r>
       <r>   -6.7554    1.0000 </r>
       <r>   -6.7362    1.0000 </r>
       <r>   -6.7004    1.0000 </r>
       <r>   -6.5006    1.0000 </r>
       <r>   -6.4857    1.0000 </r>
       <r>   -6.1512    1.0000 </r>
       <r>   -5.9747    1.0000 </r>
       <r>   -5.9638    1.0000 </r>
       <r>   -3.0554    0.0000 </r>
       <r>   -3.0478    0.0000 </r>
       <r>   -2.9811    0.0000 </r>
       <r>   -2.4891    0.0000 </r>
       <r>   -2.4621    0.0000 </r>
       <r>   -2.1396    0.0000 </r>
       <r>   -1.7652    0.0000 </r>
       <r>   -1.7612    0.0000 </r>
       <r>   -1.5126    0.0000 </r>
       <r>   -1.5017    0.0000 </r>
       <r>   -0.4998    0.0000 </r>
       <r>   -0.1869    0.0000 </r>
       <r>   -0.0345    0.0000 </r>
       <r>   -0.0154    0.0000 </r>
       <r>    0.0380    0.0000 </r>
       <r>    0.1954    0.0000 </r>
       <r>    0.2262    0.0000 </r>
       <r>    0.3363    0.0000 </r>
       <r>    0.3741    0.0000 </r>
       <r>    0.4673    0.0000 </r>
       <r>    0.5521    0.0000 </r>
       <r>    0.5728    0.0000 </r>
       <r>    0.6919    0.0000 </r>
       <r>    0.8321    0.0000 </r>
       <r>    0.8609    0.0000 </r>
       <r>    0.9779    0.0000 </r>
       <r>    1.1242    0.0000 </r>
       <r>    1.2736    0.0000 </r>
       <r>    1.4009    0.0000 </r>
       <r>    1.4361    0.0000 </r>
       <r>    1.4667    0.0000 </r>
      </set>
      <set comment="kpoint 9">
       <r>  -25.0444    1.0000 </r>
       <r>  -25.0312    1.0000 </r>
       <r>  -25.0299    1.0000 </r>
       <r>  -23.2081    1.0000 </r>
       <r>  -23.1595    1.0000 </r>
       <r>  -23.1546    1.0000 </r>
       <r>  -22.2635    1.0000 </r>
       <r>  -22.1684    1.0000 </r>
       <r>  -22.1583    1.0000 </r>
       <r>  -21.8756    1.0000 </r>
       <r>  -21.8199    1.0000 </r>
       <r>  -20.6769    1.0000 </r>
       <r>  -20.6247    1.0000 </r>
       <r>  -19.9641    1.0000 </r>
       <r>  -19.5653    1.0000 </r>
       <r>  -19.3069    1.0000 </r>
       <r>  -18.4692    1.0000 </r>
       <r>  -18.3913    1.0000 </r>
       <r>  -17.3044    1.0000 </r>
       <r>  -17.2764    1.0000 </r>
       <r>  -17.2730    1.0000 </r>
       <r>  -16.9005    1.0000 </r>
       <r>  -16.8121    1.0000 </r>
       <r>  -16.8077    1.0000 </r>
       <r>  -15.3940    1.0000 </r>
       <r>  -15.3497    1.0000 </r>
       <r>  -14.9158    1.0000 </r>
       <r>  -14.8826    1.0000 </r>
       <r>  -14.3359    1.0000 </r>
       <r>  -13.6575    1.0000 </r>
       <r>  -13.5939    1.0000 </r>
       <r>  -13.5525    1.0000 </r>
       <r>  -13.5123    1.0000 </r>
       <r>  -13.2989    1.0000 </r>
       <r>  -13.2546    1.0000 </r>
       <r>  -12.6707    1.0000 </r>
       <r>  -12.2641    1.0000 </r>
       <r>  -12.2189    1.0000 </r>
       <r>  -12.0850    1.0000 </r>
       <r>  -12.0735    1.0000 </r>
       <r>  -12.0105    1.0000 </r>
       <r>  -11.5778    1.0000 </r>
       <r>  -11.1105    1.0000 </r>
       <r>  -11.0478    1.0000 </r>
       <r>  -10.7843    1.0000 </r>
       <r>  -10.6962    1.0000 </r>
       <r>  -10.5174    1.0000 </r>
       <r>  -10.4093    1.0000 </r>
       <r>  -10.1967    1.0000 </r>
       <r>  -10.1869    1.0000 </r>
       <r>   -9.4475    1.0000 </r>
       <r>   -9.3120    1.0000 </r>
       <r>   -9.0802    1.0000 </r>
       <r>   -9.0723    1.0000 </r>
       <r>   -9.0349    1.0000 </r>
       <r>   -9.0342    1.0000 </r>
       <r>   -8.9604    1.0000 </r>
       <r>   -8.8590    1.0000 </r>
       <r>   -8.8547    1.0000 </r>
       <r>   -8.1723    1.0000 </r>
       <r>   -8.1508    1.0000 </r>
       <r>   -8.1486    1.0000 </r>
       <r>   -8.0435    1.0000 </r>
       <r>   -8.0423    1.0000 </r>
       <r>   -8.0266    1.0000 </r>
       <r>   -8.0248    1.0000 </r>
       <r>   -8.0154    1.0000 </r>
       <r>   -8.0057    1.0000 </r>
       <r>   -7.5026    1.0000 </r>
       <r>   -7.4921    1.0000 </r>
       <r>   -7.3495    1.0000 </r>
       <r>   -6.9057    1.0000 </r>
       <r>   -6.8868    1.0000 </r>
       <r>   -6.7559    1.0000 </r>
       <r>   -6.7315    1.0000 </r>
       <r>   -6.7044    1.0000 </r>
       <r>   -6.5041    1.0000 </r>
       <r>   -6.4853    1.0000 </r>
       <r>   -6.1467    1.0000 </r>
       <r>   -5.9793    1.0000 </r>
       <r>   -5.9647    1.0000 </r>
       <r>   -3.0560    0.0000 </r>
       <r>   -3.0466    0.0000 </r>
       <r>   -2.9829    0.0000 </r>
       <r>   -2.4889    0.0000 </r>
       <r>   -2.4546    0.0000 </r>
       <r>   -2.1474    0.0000 </r>
       <r>   -1.7603    0.0000 </r>
       <r>   -1.7548    0.0000 </r>
       <r>   -1.5198    0.0000 </r>
       <r>   -1.5060    0.0000 </r>
       <r>   -0.4910    0.0000 </r>
       <r>   -0.1861    0.0000 </r>
       <r>   -0.0436    0.0000 </r>
       <r>   -0.0168    0.0000 </r>
       <r>    0.0383    0.0000 </r>
       <r>    0.1837    0.0000 </r>
       <r>    0.2201    0.0000 </r>
       <r>    0.3322    0.0000 </r>
       <r>    0.3754    0.0000 </r>
       <r>    0.4689    0.0000 </r>
       <r>    0.5593    0.0000 </r>
       <r>    0.5876    0.0000 </r>
       <r>    0.6958    0.0000 </r>
       <r>    0.8264    0.0000 </r>
       <r>    0.8771    0.0000 </r>
       <r>    0.9722    0.0000 </r>
       <r>    1.1334    0.0000 </r>
       <r>    1.2662    0.0000 </r>
       <r>    1.3866    0.0000 </r>
       <r>    1.4502    0.0000 </r>
       <r>    1.4640    0.0000 </r>
      </set>
      <set comment="kpoint 10">
       <r>  -25.0440    1.0000 </r>
       <r>  -25.0316    1.0000 </r>
       <r>  -25.0299    1.0000 </r>
       <r>  -23.2067    1.0000 </r>
       <r>  -23.1608    1.0000 </r>
       <r>  -23.1546    1.0000 </r>
       <r>  -22.2614    1.0000 </r>
       <r>  -22.1716    1.0000 </r>
       <r>  -22.1583    1.0000 </r>
       <r>  -21.8753    1.0000 </r>
       <r>  -21.8200    1.0000 </r>
       <r>  -20.6769    1.0000 </r>
       <r>  -20.6116    1.0000 </r>
       <r>  -19.9990    1.0000 </r>
       <r>  -19.5654    1.0000 </r>
       <r>  -19.2680    1.0000 </r>
       <r>  -18.4885    1.0000 </r>
       <r>  -18.3912    1.0000 </r>
       <r>  -17.3041    1.0000 </r>
       <r>  -17.2774    1.0000 </r>
       <r>  -17.2730    1.0000 </r>
       <r>  -16.8966    1.0000 </r>
       <r>  -16.8138    1.0000 </r>
       <r>  -16.8079    1.0000 </r>
       <r>  -15.3935    1.0000 </r>
       <r>  -15.3388    1.0000 </r>
       <r>  -14.9241    1.0000 </r>
       <r>  -14.8829    1.0000 </r>
       <r>  -14.3355    1.0000 </r>
       <r>  -13.6692    1.0000 </r>
       <r>  -13.5939    1.0000 </r>
       <r>  -13.5513    1.0000 </r>
       <r>  -13.5126    1.0000 </r>
       <r>  -13.2991    1.0000 </r>
       <r>  -13.2467    1.0000 </r>
       <r>  -12.6706    1.0000 </r>
       <r>  -12.2589    1.0000 </r>
       <r>  -12.2187    1.0000 </r>
       <r>  -12.0883    1.0000 </r>
       <r>  -12.0756    1.0000 </r>
       <r>  -12.0177    1.0000 </r>
       <r>  -11.5642    1.0000 </r>
       <r>  -11.1083    1.0000 </r>
       <r>  -11.0310    1.0000 </r>
       <r>  -10.8044    1.0000 </r>
       <r>  -10.7002    1.0000 </r>
       <r>  -10.5281    1.0000 </r>
       <r>  -10.3991    1.0000 </r>
       <r>  -10.1987    1.0000 </r>
       <r>  -10.1867    1.0000 </r>
       <r>   -9.4457    1.0000 </r>
       <r>   -9.3152    1.0000 </r>
       <r>   -9.0821    1.0000 </r>
       <r>   -9.0731    1.0000 </r>
       <r>   -9.0335    1.0000 </r>
       <r>   -9.0328    1.0000 </r>
       <r>   -8.9599    1.0000 </r>
[...]
       <r>   -5.9605    1.0000 </r>
       <r>   -5.9584    1.0000 </r>
       <r>   -3.0534    0.0000 </r>
       <r>   -3.0517    0.0000 </r>
       <r>   -2.9745    0.0000 </r>
       <r>   -2.4898    0.0000 </r>
       <r>   -2.4880    0.0000 </r>
       <r>   -2.1125    0.0000 </r>
       <r>   -1.7829    0.0000 </r>
       <r>   -1.7828    0.0000 </r>
       <r>   -1.4877    0.0000 </r>
       <r>   -1.4862    0.0000 </r>
       <r>   -0.5293    0.0000 </r>
       <r>   -0.1934    0.0000 </r>
       <r>   -0.0101    0.0000 </r>
       <r>   -0.0019    0.0000 </r>
       <r>    0.0314    0.0000 </r>
       <r>    0.2516    0.0000 </r>
       <r>    0.2542    0.0000 </r>
       <r>    0.3983    0.0000 </r>
       <r>    0.4012    0.0000 </r>
       <r>    0.4300    0.0000 </r>
       <r>    0.4313    0.0000 </r>
       <r>    0.5805    0.0000 </r>
       <r>    0.6474    0.0000 </r>
       <r>    0.7369    0.0000 </r>
       <r>    1.0032    0.0000 </r>
       <r>    1.0035    0.0000 </r>
       <r>    1.0440    0.0000 </r>
       <r>    1.2252    0.0000 </r>
       <r>    1.4103    0.0000 </r>
       <r>    1.4146    0.0000 </r>
       <r>    1.5050    0.0000 </r>
      </set>
     </set>
    </set>
   </array>
  </eigenvalues>
  <separator name="orbital magnetization" >
   <v name="MAGDIPOLOUT">      0.00000000      0.00000000      0.00000000</v>
  </separator>
  <dos>
   <i name="efermi">     -5.85981449 </i>
   <total>
    <array>
     <dimension dim="1">gridpoints</dimension>
     <dimension dim="2">spin</dimension>
     <field>energy</field>
     <field>total</field>
     <field>integrated</field>
     <set>
      <set comment="spin 1">
       <r>   -26.3765     0.0000     0.0000 </r>
       <r>   -26.2789     0.0000     0.0000 </r>
       <r>   -26.1813     0.0000     0.0000 </r>
       <r>   -26.0837     0.0000     0.0000 </r>
       <r>   -25.9862     0.0000     0.0000 </r>
       <r>   -25.8886     0.0000     0.0000 </r>
       <r>   -25.7910     0.0000     0.0000 </r>
       <r>   -25.6934     0.0000     0.0000 </r>
       <r>   -25.5958     0.0000     0.0000 </r>
       <r>   -25.4982     0.0000     0.0000 </r>
       <r>   -25.4007     0.0000     0.0000 </r>
       <r>   -25.3031     0.0000     0.0000 </r>
       <r>   -25.2055     0.0000     0.0000 </r>
       <r>   -25.1079     0.0000     0.0000 </r>
       <r>   -25.0103    61.4094     5.9925 </r>
       <r>   -24.9127     0.0000     6.0000 </r>
       <r>   -24.8152     0.0000     6.0000 </r>
       <r>   -24.7176     0.0000     6.0000 </r>
       <r>   -24.6200     0.0000     6.0000 </r>
       <r>   -24.5224     0.0000     6.0000 </r>
       <r>   -24.4248     0.0000     6.0000 </r>
       <r>   -24.3273     0.0000     6.0000 </r>
       <r>   -24.2297     0.0000     6.0000 </r>
       <r>   -24.1321     0.0000     6.0000 </r>
       <r>   -24.0345     0.0000     6.0000 </r>
       <r>   -23.9369     0.0000     6.0000 </r>
       <r>   -23.8393     0.0000     6.0000 </r>
       <r>   -23.7418     0.0000     6.0000 </r>
       <r>   -23.6442     0.0000     6.0000 </r>
       <r>   -23.5466     0.0000     6.0000 </r>
       <r>   -23.4490     0.0000     6.0000 </r>
       <r>   -23.3514     0.0000     6.0000 </r>
       <r>   -23.2539     0.0000     6.0000 </r>
       <r>   -23.1563    45.7812    10.4674 </r>
       <r>   -23.0587     0.0000    12.0000 </r>
       <r>   -22.9611     0.0000    12.0000 </r>
       <r>   -22.8635     0.0000    12.0000 </r>
       <r>   -22.7659     0.0000    12.0000 </r>
       <r>   -22.6684     0.0000    12.0000 </r>
       <r>   -22.5708     0.0000    12.0000 </r>
       <r>   -22.4732     0.0000    12.0000 </r>
       <r>   -22.3756     0.0000    12.0000 </r>
       <r>   -22.2780     0.6399    12.0624 </r>
       <r>   -22.1804    26.8952    15.2581 </r>
       <r>   -22.0829    24.2355    18.0000 </r>
       <r>   -21.9853     0.0000    18.0000 </r>
       <r>   -21.8877     0.6970    18.0680 </r>
       <r>   -21.7901    20.4953    22.0000 </r>
       <r>   -21.6925     0.0000    22.0000 </r>
       <r>   -21.5950     0.0000    22.0000 </r>
       <r>   -21.4974     0.0000    22.0000 </r>
       <r>   -21.3998     0.0000    22.0000 </r>
       <r>   -21.3022     0.0000    22.0000 </r>
       <r>   -21.2046     0.0000    22.0000 </r>
       <r>   -21.1070     0.0000    22.0000 </r>
       <r>   -21.0095     0.0000    22.0000 </r>
       <r>   -20.9119     0.0000    22.0000 </r>
       <r>   -20.8143     0.0000    22.0000 </r>
       <r>   -20.7167     0.0000    22.0000 </r>
       <r>   -20.6191    26.2011    24.5568 </r>
       <r>   -20.5215     3.1371    24.9395 </r>
       <r>   -20.4240     7.1468    25.6975 </r>
       <r>   -20.3264     4.1340    26.2034 </r>
       <r>   -20.2288     5.9596    26.8816 </r>
       <r>   -20.1312     1.8603    27.1482 </r>
       <r>   -20.0336     1.5161    27.3479 </r>
       <r>   -19.9361     1.4439    27.5076 </r>
       <r>   -19.8385     1.2811    27.6917 </r>
       <r>   -19.7409     1.4592    27.8757 </r>
       <r>   -19.6433     0.6808    28.0000 </r>
       <r>   -19.5457    21.7175    30.1192 </r>
       <r>   -19.4481     1.3856    30.3019 </r>
       <r>   -19.3506     1.2503    30.4554 </r>
       <r>   -19.2530     1.2791    30.6248 </r>
       <r>   -19.1554     1.5207    30.7817 </r>
       <r>   -19.0578     1.5125    30.9476 </r>
       <r>   -18.9602     4.6586    31.4546 </r>
       <r>   -18.8626     3.1129    31.8371 </r>
       <r>   -18.7651     3.5212    32.2436 </r>
       <r>   -18.6675     6.0164    32.8873 </r>
       <r>   -18.5699     2.2536    33.1866 </r>
       <r>   -18.4723     2.3043    33.4582 </r>
       <r>   -18.3747    25.3881    35.9775 </r>
       <r>   -18.2772     0.0000    36.0000 </r>
       <r>   -18.1796     0.0000    36.0000 </r>
       <r>   -18.0820     0.0000    36.0000 </r>
       <r>   -17.9844     0.0000    36.0000 </r>
       <r>   -17.8868     0.0000    36.0000 </r>
       <r>   -17.7892     0.0000    36.0000 </r>
       <r>   -17.6917     0.0000    36.0000 </r>
       <r>   -17.5941     0.0000    36.0000 </r>
       <r>   -17.4965     0.0000    36.0000 </r>
       <r>   -17.3989     0.0000    36.0000 </r>
       <r>   -17.3013    11.7305    37.1447 </r>
       <r>   -17.2038    31.0723    42.0000 </r>
       <r>   -17.1062     0.0000    42.0000 </r>
       <r>   -17.0086     0.0000    42.0000 </r>
       <r>   -16.9110     3.0934    42.3019 </r>
       <r>   -16.8134    34.1242    45.9635 </r>
       <r>   -16.7158     0.0000    48.0000 </r>
       <r>   -16.6183     0.0000    48.0000 </r>
       <r>   -16.5207     0.0000    48.0000 </r>
       <r>   -16.4231     0.0000    48.0000 </r>
       <r>   -16.3255     0.0000    48.0000 </r>
       <r>   -16.2279     0.0000    48.0000 </r>
       <r>   -16.1303     0.0000    48.0000 </r>
       <r>   -16.0328     0.0000    48.0000 </r>
       <r>   -15.9352     0.0000    48.0000 </r>
       <r>   -15.8376     0.0000    48.0000 </r>
       <r>   -15.7400     0.0000    48.0000 </r>
       <r>   -15.6424     0.0000    48.0000 </r>
       <r>   -15.5449     0.0000    48.0000 </r>
       <r>   -15.4473     0.0000    48.0000 </r>
       <r>   -15.3497    25.9334    50.5306 </r>
       <r>   -15.2521     5.2629    51.1469 </r>
       <r>   -15.1545     4.4356    52.0000 </r>
       <r>   -15.0569     0.0000    52.0000 </r>
       <r>   -14.9594    12.0139    53.1723 </r>
       <r>   -14.8618    27.6460    55.9978 </r>
       <r>   -14.7642     0.0000    56.0000 </r>
       <r>   -14.6666     0.0000    56.0000 </r>
       <r>   -14.5690     0.0000    56.0000 </r>
       <r>   -14.4714     0.0000    56.0000 </r>
       <r>   -14.3739     0.0000    56.0000 </r>
       <r>   -14.2763    20.4955    58.0000 </r>
       <r>   -14.1787     0.0000    58.0000 </r>
       <r>   -14.0811     0.0000    58.0000 </r>
       <r>   -13.9835     0.0000    58.0000 </r>
       <r>   -13.8860     0.0000    58.0000 </r>
       <r>   -13.7884     0.0000    58.0000 </r>
       <r>   -13.6908    13.1848    59.2866 </r>
       <r>   -13.5932    16.3530    60.9626 </r>
       <r>   -13.4956    40.9456    65.9956 </r>
       <r>   -13.3980     0.0000    66.0000 </r>
       <r>   -13.3005    10.3159    67.0067 </r>
       <r>   -13.2029     9.9860    69.2746 </r>
       <r>   -13.1053     0.0000    70.0000 </r>
       <r>   -13.0077     0.0000    70.0000 </r>
       <r>   -12.9101     0.0000    70.0000 </r>
       <r>   -12.8126     0.0000    70.0000 </r>
       <r>   -12.7150     0.0000    70.0000 </r>
       <r>   -12.6174    20.4955    72.0000 </r>
       <r>   -12.5198     0.0000    72.0000 </r>
       <r>   -12.4222     0.0000    72.0000 </r>
       <r>   -12.3246     0.0000    72.0000 </r>
       <r>   -12.2271    11.2627    73.0990 </r>
       <r>   -12.1295    15.7435    76.6034 </r>
       <r>   -12.0319    43.5302    81.2815 </r>
       <r>   -11.9343     5.8058    82.0000 </r>
       <r>   -11.8367     0.0000    82.0000 </r>
       <r>   -11.7391     0.0000    82.0000 </r>
       <r>   -11.6416     0.5071    82.0495 </r>
       <r>   -11.5440     4.2256    82.6791 </r>
       <r>   -11.4464     7.8223    83.4968 </r>
       <r>   -11.3488     3.0707    84.0000 </r>
       <r>   -11.2512     0.0000    84.0000 </r>
       <r>   -11.1537     0.0000    84.0000 </r>
       <r>   -11.0561    25.4612    86.4846 </r>
       <r>   -10.9585    11.4239    87.6814 </r>
       <r>   -10.8609     4.4637    88.3356 </r>
       <r>   -10.7633    17.6331    90.1874 </r>
       <r>   -10.6657    18.6512    92.3203 </r>
       <r>   -10.5682     7.8308    93.1975 </r>
       <r>   -10.4706     7.1023    93.9600 </r>
       <r>   -10.3730     5.0809    94.7625 </r>
       <r>   -10.2754    11.2712    96.0000 </r>
       <r>   -10.1778    38.3449    99.7418 </r>
       <r>   -10.0802     0.0000   100.0000 </r>
       <r>    -9.9827     0.0000   100.0000 </r>
       <r>    -9.8851     0.0000   100.0000 </r>
       <r>    -9.7875     0.0000   100.0000 </r>
       <r>    -9.6899     0.0000   100.0000 </r>
       <r>    -9.5923     0.0000   100.0000 </r>
       <r>    -9.4948     0.0000   100.0000 </r>
       <r>    -9.3972    20.4955   102.0000 </r>
       <r>    -9.2996    18.4080   103.7963 </r>
       <r>    -9.2020     0.0000   104.0000 </r>
       <r>    -9.1044     6.5037   104.6346 </r>
       <r>    -9.0068    68.2141   111.9901 </r>
       <r>    -8.9093    20.4955   114.0000 </r>
       <r>    -8.8117    40.9910   118.0000 </r>
       <r>    -8.7141     0.0000   118.0000 </r>
       <r>    -8.6165     0.0000   118.0000 </r>
       <r>    -8.5189     0.0000   118.0000 </r>
       <r>    -8.4213     0.0000   118.0000 </r>
       <r>    -8.3238     0.0000   118.0000 </r>
       <r>    -8.2262     0.0000   118.0000 </r>
       <r>    -8.1286    48.4287   122.7258 </r>
       <r>    -8.0310    68.8695   129.7543 </r>
       <r>    -7.9334    22.5314   136.0000 </r>
       <r>    -7.8359     0.0000   136.0000 </r>
       <r>    -7.7383     0.0000   136.0000 </r>
       <r>    -7.6407     0.0000   136.0000 </r>
       <r>    -7.5431     0.0000   136.0000 </r>
       <r>    -7.4455    40.9906   140.0000 </r>
       <r>    -7.3479    15.4659   141.5092 </r>
       <r>    -7.2504     0.0000   142.0000 </r>
       <r>    -7.1528     0.0000   142.0000 </r>
       <r>    -7.0552     0.0000   142.0000 </r>
       <r>    -6.9576     0.0000   142.0000 </r>
       <r>    -6.8600    29.1832   144.8478 </r>
       <r>    -6.7625    21.9468   147.1756 </r>
       <r>    -6.6649    31.1805   151.9775 </r>
       <r>    -6.5673     0.0065   152.0006 </r>
       <r>    -6.4697    40.3526   155.9383 </r>
       <r>    -6.3721     0.0000   156.0000 </r>
       <r>    -6.2745     0.0000   156.0000 </r>
       <r>    -6.1770     0.1586   156.0155 </r>
       <r>    -6.0794    13.1551   157.6173 </r>
       <r>    -5.9818    17.0927   159.6682 </r>
       <r>    -5.8842     8.5199   162.0000 </r>
       <r>    -5.7866     0.0000   162.0000 </r>
       <r>    -5.6890     0.0000   162.0000 </r>
       <r>    -5.5915     0.0000   162.0000 </r>
       <r>    -5.4939     0.0000   162.0000 </r>
       <r>    -5.3963     0.0000   162.0000 </r>
       <r>    -5.2987     0.0000   162.0000 </r>
       <r>    -5.2011     0.0000   162.0000 </r>
       <r>    -5.1036     0.0000   162.0000 </r>
       <r>    -5.0060     0.0000   162.0000 </r>
       <r>    -4.9084     0.0000   162.0000 </r>
       <r>    -4.8108     0.0000   162.0000 </r>
       <r>    -4.7132     0.0000   162.0000 </r>
       <r>    -4.6156     0.0000   162.0000 </r>
       <r>    -4.5181     0.0000   162.0000 </r>
       <r>    -4.4205     0.0000   162.0000 </r>
       <r>    -4.3229     0.0000   162.0000 </r>
       <r>    -4.2253     0.0000   162.0000 </r>
       <r>    -4.1277     0.0000   162.0000 </r>
       <r>    -4.0301     0.0000   162.0000 </r>
       <r>    -3.9326     0.0000   162.0000 </r>
       <r>    -3.8350     0.0000   162.0000 </r>
       <r>    -3.7374     0.0000   162.0000 </r>
       <r>    -3.6398     0.0000   162.0000 </r>
       <r>    -3.5422     0.0000   162.0000 </r>
       <r>    -3.4447     0.0000   162.0000 </r>
       <r>    -3.3471     0.0000   162.0000 </r>
       <r>    -3.2495     0.0000   162.0000 </r>
       <r>    -3.1519     0.0000   162.0000 </r>
       <r>    -3.0543    16.4557   163.6058 </r>
       <r>    -2.9567    31.4000   167.9984 </r>
       <r>    -2.8592     0.0000   168.0000 </r>
       <r>    -2.7616     0.0000   168.0000 </r>
       <r>    -2.6640     0.0000   168.0000 </r>
       <r>    -2.5664     0.0000   168.0000 </r>
       <r>    -2.4688    24.5184   170.3926 </r>
       <r>    -2.3712     6.2427   171.1759 </r>
       <r>    -2.2737     5.4462   172.0983 </r>
       <r>    -2.1761     9.3289   173.2773 </r>
       <r>    -2.0785     6.4874   174.0000 </r>
       <r>    -1.9809     0.0000   174.0000 </r>
       <r>    -1.8833     0.0000   174.0000 </r>
       <r>    -1.7858     1.5743   174.1536 </r>
       <r>    -1.6882    20.5221   176.8031 </r>
       <r>    -1.5906    16.7158   178.9985 </r>
       <r>    -1.4930    21.6533   181.5134 </r>
       <r>    -1.3954     0.0000   182.0000 </r>
       <r>    -1.2978     0.0000   182.0000 </r>
       <r>    -1.2003     0.0000   182.0000 </r>
       <r>    -1.1027     0.0000   182.0000 </r>
       <r>    -1.0051     0.0000   182.0000 </r>
       <r>    -0.9075     0.0000   182.0000 </r>
       <r>    -0.8099     0.0000   182.0000 </r>
       <r>    -0.7124     0.0000   182.0000 </r>
       <r>    -0.6148     0.0000   182.0000 </r>
       <r>    -0.5172     3.0127   182.2940 </r>
       <r>    -0.4196     4.1632   182.9063 </r>
       <r>    -0.3220    10.2029   183.9956 </r>
       <r>    -0.2244    10.2020   184.9955 </r>
       <r>    -0.1269     9.2230   186.0001 </r>
       <r>    -0.0293    26.3083   188.5673 </r>
       <r>     0.0683    27.5922   192.1603 </r>
       <r>     0.1659     9.2001   193.3648 </r>
       <r>     0.2635    26.0896   195.9803 </r>
       <r>     0.3611    19.1029   197.8641 </r>
       <r>     0.4586    20.8975   200.4735 </r>
       <r>     0.5562    23.5307   203.1631 </r>
       <r>     0.6538    22.1341   205.6939 </r>
       <r>     0.7514    12.7404   207.2433 </r>
       <r>     0.8490    19.7226   209.4249 </r>
       <r>     0.9465    21.0063   211.6834 </r>
       <r>     1.0441    15.8845   213.6838 </r>
       <r>     1.1417    12.2471   215.5619 </r>
       <r>     1.2393    13.3630   217.1708 </r>
       <r>     1.3369    20.6018   219.4773 </r>
       <r>     1.4345    29.2917   222.5918 </r>
       <r>     1.5320     7.0672   223.8563 </r>
       <r>     1.6296     0.6832   224.0000 </r>
       <r>     1.7272     0.0000   224.0000 </r>
       <r>     1.8248     0.0000   224.0000 </r>
       <r>     1.9224     0.0000   224.0000 </r>
       <r>     2.0200     0.0000   224.0000 </r>
       <r>     2.1175     0.0000   224.0000 </r>
       <r>     2.2151     0.0000   224.0000 </r>
       <r>     2.3127     0.0000   224.0000 </r>
       <r>     2.4103     0.0000   224.0000 </r>
       <r>     2.5079     0.0000   224.0000 </r>
       <r>     2.6054     0.0000   224.0000 </r>
       <r>     2.7030     0.0000   224.0000 </r>
       <r>     2.8006     0.0000   224.0000 </r>
       <r>     2.8982     0.0000   224.0000 </r>
      </set>
     </set>
    </array>
   </total>
  </dos>
 </calculation>
 <structure name="finalpos" >
  <crystal>
   <varray name="basis" >
    <v>      14.70631429       0.00475199       0.00000000 </v>
    <v>      -7.34904106      12.72626335       0.00000000 </v>
    <v>       0.00000000       0.00000000      20.00000000 </v>
   </varray>
   <i name="volume">   3743.82702376 </i>
   <varray name="rec_basis" >
    <v>       0.06798532       0.03925951       0.00000000 </v>
    <v>      -0.00002539       0.07856300       0.00000000 </v>
    <v>       0.00000000       0.00000000       0.05000000 </v>
   </varray>
  </crystal>
  <varray name="positions" >
   <v>       0.75170786       0.38009990       0.48696628 </v>
   <v>       0.69661108       0.43491405       0.48712181 </v>
   <v>       0.69659119       0.27016673       0.48709015 </v>
   <v>       0.86868513       0.43857767       0.48635822 </v>
   <v>       0.92683714       0.46742392       0.54613767 </v>
   <v>       0.58676675       0.38017416       0.48712655 </v>
   <v>       0.58674393       0.21503207       0.48707785 </v>
   <v>       0.53205768       0.27025276       0.48723461 </v>
   <v>       0.52805527       0.09795072       0.48648258 </v>
   <v>       0.52812847       0.43859346       0.48657027 </v>
   <v>       0.49860172       0.03970456       0.54624460 </v>
   <v>       0.49895816       0.46763690       0.54633765 </v>
   <v>       0.19825872       0.60325150       0.48747367 </v>
   <v>       0.25334274       0.54848144       0.48743774 </v>
   <v>       0.36313809       0.60330979       0.48753451 </v>
   <v>       0.41788555       0.71318530       0.48739522 </v>
   <v>       0.36304115       0.76819884       0.48746619 </v>
   <v>       0.25324938       0.71312674       0.48740389 </v>
   <v>       0.42140733       0.88519858       0.48768720 </v>
   <v>       0.45077474       0.94393327       0.42758098 </v>
   <v>       0.42435047       0.89195483       0.36382725 </v>
   <v>       0.42157425       0.54476197       0.48778122 </v>
   <v>       0.45075803       0.51523255       0.42767782 </v>
   <v>       0.42435185       0.54079309       0.36392411 </v>
   <v>       0.08131887       0.54472770       0.48764454 </v>
   <v>       0.02265264       0.51561856       0.42754281 </v>
   <v>       0.07435015       0.54147687       0.36374697 </v>
   <v>       0.91696225       0.46283967       0.42687745 </v>
   <v>       0.50388174       0.04970424       0.42697595 </v>
   <v>       0.50375109       0.46248270       0.42707866 </v>
   <v>       0.40222371       0.84888260       0.31226896 </v>
   <v>       0.40237828       0.56187025       0.31236524 </v>
   <v>       0.11661566       0.56246911       0.31194243 </v>
   <v>       0.44596594       0.93464681       0.54694222 </v>
   <v>       0.44635267       0.52005863       0.54702266 </v>
   <v>       0.03178631       0.51973190       0.54685584 </v>
   <v>       0.73943190       0.22730919       0.48621822 </v>
   <v>       0.73946161       0.52062992       0.48624957 </v>
   <v>       0.88719018       0.44757717       0.59462321 </v>
   <v>       0.50352972       0.75607636       0.48736909 </v>
   <v>       0.51824495       0.07935885       0.59473833 </v>
   <v>       0.51876849       0.44781648       0.59483715 </v>
   <v>       0.44640590       0.22743023       0.48643009 </v>
   <v>       0.21043606       0.75600786       0.48744105 </v>
   <v>       0.21055021       0.46277710       0.48745051 </v>
  </varray>
 </structure>
</modeling>
