<?xml version="1.0" encoding="ISO-8859-1"?>
<modeling>
 <generator>
  <i name="program" type="string">vasp </i>
  <i name="version" type="string">5.4.4.18Apr17-6-g9f103f2a35  </i>
  <i name="subversion" type="string">(build Jun 07 2020 16:50:00) complex            parallel </i>
  <i name="platform" type="string">LinuxIFC </i>
  <i name="date" type="string">2023 02 19 </i>
  <i name="time" type="string">08:36:39 </i>
 </generator>
 <incar>
  <i type="string" name="SYSTEM">Simulation for cell shape cell volume r</i>
  <i type="int" name="ISTART">     1</i>
  <i type="string" name="PREC">high</i>
  <i type="string" name="ALGO">48</i>
  <i type="int" name="ICHARG">    11</i>
  <i type="int" name="NELM">   200</i>
  <i type="int" name="IBRION">    -1</i>
  <i name="EDIFF">      0.00001000</i>
  <i name="EDIFFG">     -0.01000000</i>
  <i type="int" name="NSW">     0</i>
  <i type="int" name="ISIF">     2</i>
  <i name="ENCUT">    500.00000000</i>
  <i name="POTIM">      0.30000000</i>
  <i type="string" name="LREAL">A</i>
  <i type="int" name="ISMEAR">     0</i>
  <i name="SIGMA">      0.01000000</i>
  <i type="int" name="NWRITE">     0</i>
  <i type="logical" name="LWAVE"> F  </i>
  <i type="logical" name="LCHARG"> F  </i>
  <v type="int" name="KPOINT_BSE">    -1     0     0     0</v>
  <i type="int" name="NELM">   200</i>
  <i type="string" name="GGA">PE</i>
 </incar>
 <structure name="primitive_cell" >
  <crystal>
   <varray name="basis" >
    <v>      29.32640261      -0.01564760       0.00000000 </v>
    <v>     -14.67670148      25.41741762       0.00000000 </v>
    <v>       0.00000000       0.00000000      20.00000000 </v>
   </varray>
   <i name="volume">  14903.43534663 </i>
   <varray name="rec_basis" >
    <v>       0.03410947       0.01969573       0.00000000 </v>
    <v>       0.00002100       0.03935523       0.00000000 </v>
    <v>       0.00000000       0.00000000       0.05000000 </v>
   </varray>
  </crystal>
  <varray name="positions" >
   <v>       0.28037989      -0.43149920       0.47900484 </v>
   <v>       0.30383582      -0.38866752       0.47895941 </v>
   <v>       0.27784042      -0.35906719       0.47869013 </v>
   <v>       0.35886906      -0.36283086       0.47849145 </v>
   <v>       0.33101041      -0.46816480       0.45131100 </v>
   <v>       0.20573488      -0.42404833       0.49283824 </v>
   <v>       0.33807959      -0.45652908      -0.46116723 </v>
   <v>       0.36011479      -0.44657159       0.49102647 </v>
   <v>       0.22312156      -0.38610554       0.47721746 </v>
   <v>       0.38586552      -0.39048745       0.47679530 </v>
   <v>       0.30704510      -0.30407496       0.47871826 </v>
   <v>       0.38852164      -0.30723705       0.47849404 </v>
   <v>       0.42394360      -0.36983383       0.49199966 </v>
   <v>       0.36269163      -0.27808379       0.47825827 </v>
   <v>       0.19275804      -0.36031519       0.49098988 </v>
   <v>       0.40055175      -0.46392943       0.49318828 </v>
   <v>       0.28763273      -0.28066629       0.47863524 </v>
   <v>       0.43138584      -0.28780660       0.47819997 </v>
   <v>       0.20477067      -0.33813255      -0.46130343 </v>
   <v>       0.20038396      -0.33136217       0.45104833 </v>
   <v>       0.41590818      -0.45414724       0.38710660 </v>
   <v>       0.13491801      -0.40073971       0.49302614 </v>
   <v>       0.39506491      -0.47694803      -0.40023942 </v>
   <v>       0.42629420      -0.46498425       0.43458820 </v>
   <v>       0.41487180      -0.47731884      -0.44632540 </v>
   <v>       0.12942955      -0.41582138       0.38687813 </v>
   <v>       0.10816167      -0.42633163       0.43433794 </v>
   <v>       0.39044098      -0.22342326       0.47640377 </v>
   <v>       0.10715888      -0.41524818      -0.44651661 </v>
   <v>       0.12732882      -0.39556577      -0.40037165 </v>
   <v>       0.36988569      -0.20596075       0.49174806 </v>
   <v>       0.45685138      -0.20516080      -0.46224179 </v>
   <v>       0.44665530      -0.19302535       0.49017245 </v>
   <v>       0.05529905      -0.46537468       0.43618509 </v>
   <v>       0.46806611      -0.20041916       0.45010181 </v>
   <v>       0.46529608      -0.47881493       0.43654733 </v>
   <v>       0.45377692      -0.49140099      -0.44425496 </v>
   <v>       0.05414108      -0.45419569      -0.44454622 </v>
   <v>       0.03562777      -0.48548521       0.39007069 </v>
   <v>       0.02721492      -0.48020764       0.49687060 </v>
   <v>       0.47993027      -0.49221616       0.49725848 </v>
   <v>       0.48553199      -0.47826059       0.39050277 </v>
   <v>       0.46347692       0.49730360      -0.39668023 </v>
   <v>       0.03308397      -0.46402715      -0.39699299 </v>
   <v>       0.46399815      -0.13526870       0.49264538 </v>
   <v>       0.45475753      -0.12924623       0.38651953 </v>
   <v>      -0.02279953       0.44618321      -0.40600106 </v>
   <v>      -0.02885913       0.47806069       0.49905264 </v>
   <v>       0.47661195      -0.12815034      -0.40069340 </v>
   <v>       0.46529294      -0.10825859       0.43417047 </v>
   <v>      -0.47843964       0.49334639       0.49957450 </v>
   <v>       0.47709897      -0.10782617      -0.44667775 </v>
   <v>      -0.04911361       0.44322352      -0.44646338 </v>
   <v>      -0.49894259       0.45264800       0.40451477 </v>
   <v>      -0.44683233      -0.46911825      -0.40517952 </v>
   <v>      -0.04918619       0.49884619       0.40429098 </v>
   <v>      -0.06359876       0.47193894       0.44679157 </v>
   <v>      -0.47221340       0.46491725       0.44720215 </v>
   <v>      -0.44380699      -0.49233347      -0.44572854 </v>
   <v>       0.47901809      -0.05548294       0.43644475 </v>
   <v>       0.49107150      -0.05490082      -0.44428543 </v>
   <v>      -0.10208923       0.40435035      -0.44391164 </v>
   <v>       0.47867493      -0.03561480       0.39048606 </v>
   <v>      -0.11642852       0.43272370       0.44921844 </v>
   <v>       0.49205410      -0.02773837       0.49735950 </v>
   <v>      -0.11699886       0.37789417      -0.40094655 </v>
   <v>      -0.49782974      -0.03410050      -0.39656431 </v>
   <v>      -0.43309850       0.45121902       0.44972498 </v>
   <v>      -0.40501788       0.49349759      -0.44309351 </v>
   <v>      -0.13655447       0.39851106      -0.49592969 </v>
   <v>      -0.14266592       0.42876716       0.40802994 </v>
   <v>      -0.42902938       0.42909494       0.40846443 </v>
   <v>      -0.39909992       0.46503944      -0.49520849 </v>
   <v>      -0.37866506      -0.49511153      -0.40001739 </v>
   <v>      -0.49369855       0.02823811      -0.49999890 </v>
   <v>       0.46820341       0.02164728      -0.40500091 </v>
   <v>      -0.19440759       0.35832510      -0.49219409 </v>
   <v>      -0.20085336       0.32807436      -0.45477984 </v>
   <v>       0.49158045       0.04814665      -0.44529438 </v>
   <v>      -0.45252216       0.04905106       0.40524566 </v>
   <v>      -0.20823141       0.33779434       0.45910671 </v>
   <v>      -0.46509972       0.06320020       0.44793323 </v>
   <v>      -0.42378809       0.37124462      -0.48480155 </v>
   <v>      -0.20583895       0.42288101      -0.48483416 </v>
   <v>      -0.35900419       0.44731242      -0.49145198 </v>
   <v>      -0.22401659       0.38402501      -0.47336324 </v>
   <v>      -0.33823924       0.45431174       0.45997836 </v>
   <v>      -0.32887811       0.47087473      -0.45373161 </v>
   <v>      -0.38491312       0.39187645      -0.47319494 </v>
   <v>      -0.49444970       0.10102609      -0.44232841 </v>
   <v>      -0.45164352       0.11591325       0.45075100 </v>
   <v>       0.49390451       0.11567390      -0.39918905 </v>
   <v>      -0.27867033       0.35801745      -0.47528229 </v>
   <v>      -0.43212436       0.28884564      -0.47460796 </v>
   <v>      -0.46585908       0.13569991      -0.49416034 </v>
   <v>      -0.28977026       0.27911305      -0.47513982 </v>
   <v>      -0.35890234       0.36327543      -0.47512028 </v>
   <v>      -0.42941274       0.14234348       0.40969808 </v>
   <v>      -0.27989867       0.43113767      -0.47534531 </v>
   <v>      -0.30863382       0.30304144      -0.47554342 </v>
   <v>      -0.38929337       0.30773277      -0.47523192 </v>
   <v>      -0.30386660       0.38834561      -0.47559358 </v>
   <v>      -0.47174505       0.19976214      -0.45186416 </v>
   <v>      -0.44839285       0.19343647      -0.49013774 </v>
   <v>      -0.45599551       0.20707245       0.46156969 </v>
   <v>      -0.37216912       0.20501436      -0.48427807 </v>
   <v>      -0.36421292       0.27783458      -0.47497479 </v>
   <v>      -0.39277397       0.22325351      -0.47275987 </v>
  </varray>
 </structure>
 <varray name="primitive_index" >
  <v type="int" >        1 </v>
  <v type="int" >       58 </v>
  <v type="int" >       57 </v>
  <v type="int" >       59 </v>
  <v type="int" >       23 </v>
  <v type="int" >        6 </v>
  <v type="int" >       24 </v>
  <v type="int" >       80 </v>
  <v type="int" >       51 </v>
  <v type="int" >       50 </v>
  <v type="int" >       56 </v>
  <v type="int" >       60 </v>
  <v type="int" >        5 </v>
  <v type="int" >       55 </v>
  <v type="int" >       87 </v>
  <v type="int" >       74 </v>
  <v type="int" >        3 </v>
  <v type="int" >        2 </v>
  <v type="int" >       30 </v>
  <v type="int" >       29 </v>
  <v type="int" >       39 </v>
  <v type="int" >       81 </v>
  <v type="int" >       20 </v>
  <v type="int" >       95 </v>
  <v type="int" >       77 </v>
  <v type="int" >       45 </v>
  <v type="int" >      102 </v>
  <v type="int" >       49 </v>
  <v type="int" >       84 </v>
  <v type="int" >       26 </v>
  <v type="int" >        4 </v>
  <v type="int" >       18 </v>
  <v type="int" >       73 </v>
  <v type="int" >      103 </v>
  <v type="int" >       17 </v>
  <v type="int" >       96 </v>
  <v type="int" >       76 </v>
  <v type="int" >       83 </v>
  <v type="int" >       46 </v>
  <v type="int" >       82 </v>
  <v type="int" >       75 </v>
  <v type="int" >       40 </v>
  <v type="int" >       19 </v>
  <v type="int" >       25 </v>
  <v type="int" >       67 </v>
  <v type="int" >       33 </v>
  <v type="int" >       28 </v>
  <v type="int" >      104 </v>
  <v type="int" >       14 </v>
  <v type="int" >       88 </v>
  <v type="int" >       97 </v>
  <v type="int" >       70 </v>
  <v type="int" >       86 </v>
  <v type="int" >       37 </v>
  <v type="int" >       22 </v>
  <v type="int" >       43 </v>
  <v type="int" >      105 </v>
  <v type="int" >       98 </v>
  <v type="int" >       79 </v>
  <v type="int" >       89 </v>
  <v type="int" >       69 </v>
  <v type="int" >       85 </v>
  <v type="int" >       34 </v>
  <v type="int" >      106 </v>
  <v type="int" >       68 </v>
  <v type="int" >       27 </v>
  <v type="int" >       13 </v>
  <v type="int" >       99 </v>
  <v type="int" >       78 </v>
  <v type="int" >      107 </v>
  <v type="int" >       44 </v>
  <v type="int" >       38 </v>
  <v type="int" >      100 </v>
  <v type="int" >       21 </v>
  <v type="int" >       90 </v>
  <v type="int" >       16 </v>
  <v type="int" >      108 </v>
  <v type="int" >       48 </v>
  <v type="int" >       72 </v>
  <v type="int" >       31 </v>
  <v type="int" >       47 </v>
  <v type="int" >       91 </v>
  <v type="int" >       11 </v>
  <v type="int" >       12 </v>
  <v type="int" >      101 </v>
  <v type="int" >       54 </v>
  <v type="int" >       41 </v>
  <v type="int" >       42 </v>
  <v type="int" >       53 </v>
  <v type="int" >       71 </v>
  <v type="int" >       92 </v>
  <v type="int" >       15 </v>
  <v type="int" >       63 </v>
  <v type="int" >        8 </v>
  <v type="int" >       93 </v>
  <v type="int" >        9 </v>
  <v type="int" >       65 </v>
  <v type="int" >       32 </v>
  <v type="int" >        7 </v>
  <v type="int" >       62 </v>
  <v type="int" >       66 </v>
  <v type="int" >       64 </v>
  <v type="int" >       36 </v>
  <v type="int" >       94 </v>
  <v type="int" >       35 </v>
  <v type="int" >       10 </v>
  <v type="int" >       61 </v>
  <v type="int" >       52 </v>
 </varray>
 <kpoints>
  <generation param="listgenerated">
   <i name="divisions" type="int">      20 </i>
   <v>       0.00000000       0.00000000       0.00000000 </v>
   <v>       0.50000000       0.00000000       0.00000000 </v>
   <v>       0.33333333       0.33333333       0.00000000 </v>
   <v>       0.00000000       0.00000000       0.00000000 </v>
  </generation>
  <varray name="kpointlist" >
   <v>       0.00000000       0.00000000       0.00000000 </v>
   <v>       0.02631579       0.00000000       0.00000000 </v>
   <v>       0.05263158       0.00000000       0.00000000 </v>
   <v>       0.07894737       0.00000000       0.00000000 </v>
   <v>       0.10526316       0.00000000       0.00000000 </v>
   <v>       0.13157895       0.00000000       0.00000000 </v>
   <v>       0.15789474       0.00000000       0.00000000 </v>
   <v>       0.18421053       0.00000000       0.00000000 </v>
   <v>       0.21052632       0.00000000       0.00000000 </v>
   <v>       0.23684211       0.00000000       0.00000000 </v>
   <v>       0.26315789       0.00000000       0.00000000 </v>
   <v>       0.28947368       0.00000000       0.00000000 </v>
   <v>       0.31578947       0.00000000       0.00000000 </v>
   <v>       0.34210526       0.00000000       0.00000000 </v>
   <v>       0.36842105       0.00000000       0.00000000 </v>
   <v>       0.39473684       0.00000000       0.00000000 </v>
   <v>       0.42105263       0.00000000       0.00000000 </v>
   <v>       0.44736842       0.00000000       0.00000000 </v>
   <v>       0.47368421       0.00000000       0.00000000 </v>
   <v>       0.50000000       0.00000000       0.00000000 </v>
   <v>       0.50000000       0.00000000       0.00000000 </v>
   <v>       0.49122807       0.01754386       0.00000000 </v>
   <v>       0.48245614       0.03508772       0.00000000 </v>
   <v>       0.47368421       0.05263158       0.00000000 </v>
   <v>       0.46491228       0.07017544       0.00000000 </v>
   <v>       0.45614035       0.08771930       0.00000000 </v>
   <v>       0.44736842       0.10526316       0.00000000 </v>
   <v>       0.43859649       0.12280702       0.00000000 </v>
   <v>       0.42982456       0.14035088       0.00000000 </v>
   <v>       0.42105263       0.15789474       0.00000000 </v>
   <v>       0.41228070       0.17543860       0.00000000 </v>
   <v>       0.40350877       0.19298246       0.00000000 </v>
   <v>       0.39473684       0.21052632       0.00000000 </v>
   <v>       0.38596491       0.22807018       0.00000000 </v>
   <v>       0.37719298       0.24561404       0.00000000 </v>
   <v>       0.36842105       0.26315789       0.00000000 </v>
   <v>       0.35964912       0.28070175       0.00000000 </v>
   <v>       0.35087719       0.29824561       0.00000000 </v>
   <v>       0.34210526       0.31578947       0.00000000 </v>
   <v>       0.33333333       0.33333333       0.00000000 </v>
   <v>       0.33333333       0.33333333       0.00000000 </v>
   <v>       0.31578947       0.31578947       0.00000000 </v>
   <v>       0.29824561       0.29824561       0.00000000 </v>
   <v>       0.28070175       0.28070175       0.00000000 </v>
   <v>       0.26315789       0.26315789       0.00000000 </v>
   <v>       0.24561404       0.24561404       0.00000000 </v>
   <v>       0.22807018       0.22807018       0.00000000 </v>
   <v>       0.21052632       0.21052632       0.00000000 </v>
   <v>       0.19298246       0.19298246       0.00000000 </v>
   <v>       0.17543860       0.17543860       0.00000000 </v>
   <v>       0.15789474       0.15789474       0.00000000 </v>
   <v>       0.14035088       0.14035088       0.00000000 </v>
   <v>       0.12280702       0.12280702       0.00000000 </v>
   <v>       0.10526316       0.10526316       0.00000000 </v>
   <v>       0.08771930       0.08771930       0.00000000 </v>
   <v>       0.07017544       0.07017544       0.00000000 </v>
   <v>       0.05263158       0.05263158       0.00000000 </v>
   <v>       0.03508772       0.03508772       0.00000000 </v>
   <v>       0.01754386       0.01754386       0.00000000 </v>
   <v>       0.00000000       0.00000000       0.00000000 </v>
  </varray>
  <varray name="weights" >
   <v>       0.01666667 </v>
   <v>       0.01666667 </v>
   <v>       0.01666667 </v>
   <v>       0.01666667 </v>
   <v>       0.01666667 </v>
   <v>       0.01666667 </v>
   <v>       0.01666667 </v>
   <v>       0.01666667 </v>
   <v>       0.01666667 </v>
   <v>       0.01666667 </v>
   <v>       0.01666667 </v>
   <v>       0.01666667 </v>
   <v>       0.01666667 </v>
   <v>       0.01666667 </v>
   <v>       0.01666667 </v>
   <v>       0.01666667 </v>
   <v>       0.01666667 </v>
   <v>       0.01666667 </v>
   <v>       0.01666667 </v>
   <v>       0.01666667 </v>
   <v>       0.01666667 </v>
   <v>       0.01666667 </v>
   <v>       0.01666667 </v>
   <v>       0.01666667 </v>
   <v>       0.01666667 </v>
   <v>       0.01666667 </v>
   <v>       0.01666667 </v>
   <v>       0.01666667 </v>
   <v>       0.01666667 </v>
   <v>       0.01666667 </v>
   <v>       0.01666667 </v>
   <v>       0.01666667 </v>
   <v>       0.01666667 </v>
   <v>       0.01666667 </v>
   <v>       0.01666667 </v>
   <v>       0.01666667 </v>
   <v>       0.01666667 </v>
   <v>       0.01666667 </v>
   <v>       0.01666667 </v>
   <v>       0.01666667 </v>
   <v>       0.01666667 </v>
   <v>       0.01666667 </v>
   <v>       0.01666667 </v>
   <v>       0.01666667 </v>
   <v>       0.01666667 </v>
   <v>       0.01666667 </v>
   <v>       0.01666667 </v>
   <v>       0.01666667 </v>
   <v>       0.01666667 </v>
   <v>       0.01666667 </v>
   <v>       0.01666667 </v>
   <v>       0.01666667 </v>
   <v>       0.01666667 </v>
   <v>       0.01666667 </v>
   <v>       0.01666667 </v>
   <v>       0.01666667 </v>
   <v>       0.01666667 </v>
   <v>       0.01666667 </v>
   <v>       0.01666667 </v>
   <v>       0.01666667 </v>
  </varray>
 </kpoints>
 <parameters>
  <separator name="general" >
   <i type="string" name="SYSTEM">Simulation for cell shape cell volume r</i>
   <i type="logical" name="LCOMPAT"> F  </i>
  </separator>
  <separator name="electronic" >
   <i type="string" name="PREC">high</i>
   <i name="ENMAX">    500.00000000</i>
   <i name="ENAUG">    644.87300000</i>
   <i name="EDIFF">      0.00001000</i>
   <i type="int" name="IALGO">    38</i>
   <i type="int" name="IWAVPR">    10</i>
   <i type="int" name="NBANDS">   208</i>
   <i name="NELECT">    294.00000000</i>
   <i type="int" name="TURBO">     0</i>
   <i type="int" name="IRESTART">     0</i>
   <i type="int" name="NREBOOT">     0</i>
   <i type="int" name="NMIN">     0</i>
   <i name="EREF">      0.00000000</i>
   <separator name="electronic smearing" >
    <i type="int" name="ISMEAR">     0</i>
    <i name="SIGMA">      0.01000000</i>
    <i name="KSPACING">      0.50000000</i>
    <i type="logical" name="KGAMMA"> T  </i>
   </separator>
   <separator name="electronic projectors" >
    <i type="logical" name="LREAL"> T  </i>
    <v name="ROPT">     -0.00040000     -0.00040000     -0.00040000</v>
    <i type="int" name="LMAXPAW">  -100</i>
    <i type="int" name="LMAXMIX">     2</i>
    <i type="logical" name="NLSPLINE"> F  </i>
   </separator>
   <separator name="electronic startup" >
    <i type="int" name="ISTART">     1</i>
    <i type="int" name="ICHARG">    11</i>
    <i type="int" name="INIWAV">     1</i>
   </separator>
   <separator name="electronic spin" >
    <i type="int" name="ISPIN">     1</i>
    <i type="logical" name="LNONCOLLINEAR"> F  </i>
    <v name="MAGMOM">      1.00000000      1.00000000      1.00000000      1.00000000      1.00000000      1.00000000      1.00000000      1.00000000      1.00000000      1.00000000      1.00000000      1.00000000      1.00000000      1.00000000      1.00000000      1.00000000      1.00000000      1.00000000      1.00000000      1.00000000
      1.00000000      1.00000000      1.00000000      1.00000000      1.00000000      1.00000000      1.00000000      1.00000000      1.00000000      1.00000000      1.00000000      1.00000000      1.00000000      1.00000000      1.00000000      1.00000000      1.00000000      1.00000000      1.00000000      1.00000000
      1.00000000      1.00000000      1.00000000      1.00000000      1.00000000      1.00000000      1.00000000      1.00000000      1.00000000      1.00000000      1.00000000      1.00000000      1.00000000      1.00000000      1.00000000      1.00000000      1.00000000      1.00000000      1.00000000      1.00000000
      1.00000000      1.00000000      1.00000000      1.00000000      1.00000000      1.00000000      1.00000000      1.00000000      1.00000000      1.00000000      1.00000000      1.00000000      1.00000000      1.00000000      1.00000000      1.00000000      1.00000000      1.00000000      1.00000000      1.00000000
      1.00000000      1.00000000      1.00000000      1.00000000      1.00000000      1.00000000      1.00000000      1.00000000      1.00000000      1.00000000      1.00000000      1.00000000      1.00000000      1.00000000      1.00000000      1.00000000      1.00000000      1.00000000      1.00000000      1.00000000
      1.00000000      1.00000000      1.00000000      1.00000000      1.00000000      1.00000000      1.00000000      1.00000000</v>
    <i name="NUPDOWN">     -1.00000000</i>
    <i type="logical" name="LSORBIT"> F  </i>
    <v name="SAXIS">      0.00000000      0.00000000      1.00000000</v>
    <i type="logical" name="LSPIRAL"> F  </i>
    <v name="QSPIRAL">      0.00000000      0.00000000      0.00000000</v>
    <i type="logical" name="LZEROZ"> F  </i>
   </separator>
   <separator name="electronic exchange-correlation" >
    <i type="logical" name="LASPH"> F  </i>
    <i type="logical" name="LMETAGGA"> F  </i>
   </separator>
   <separator name="electronic convergence" >
    <i type="int" name="NELM">   200</i>
    <i type="int" name="NELMDL">     0</i>
    <i type="int" name="NELMIN">     2</i>
    <i name="ENINI">    500.00000000</i>
    <separator name="electronic convergence detail" >
     <i type="logical" name="LDIAG"> T  </i>
     <i type="logical" name="LSUBROT"> F  </i>
     <i name="WEIMIN">      0.00000000</i>
     <i name="EBREAK">      0.00000001</i>
     <i name="DEPER">      0.30000000</i>
     <i type="int" name="NRMM">     4</i>
     <i name="TIME">      0.40000000</i>
    </separator>
   </separator>
   <separator name="electronic mixer" >
    <i name="AMIX">      0.40000000</i>
    <i name="BMIX">      1.00000000</i>
    <i name="AMIN">      0.10000000</i>
    <i name="AMIX_MAG">      1.60000000</i>
    <i name="BMIX_MAG">      1.00000000</i>
    <separator name="electronic mixer details" >
     <i type="int" name="IMIX">     4</i>
     <i type="logical" name="MIXFIRST"> F  </i>
     <i type="int" name="MAXMIX">   -45</i>
     <i name="WC">    100.00000000</i>
     <i type="int" name="INIMIX">     1</i>
     <i type="int" name="MIXPRE">     1</i>
     <i type="int" name="MREMOVE">     5</i>
    </separator>
   </separator>
   <separator name="electronic dipolcorrection" >
    <i type="logical" name="LDIPOL"> F  </i>
    <i type="logical" name="LMONO"> F  </i>
    <i type="int" name="IDIPOL">     0</i>
    <i name="EPSILON">      1.00000000</i>
    <v name="DIPOL">   -100.00000000   -100.00000000   -100.00000000</v>
    <i name="EFIELD">      0.00000000</i>
   </separator>
  </separator>
  <separator name="grids" >
   <i type="int" name="NGX">   216</i>
   <i type="int" name="NGY">   216</i>
   <i type="int" name="NGZ">   150</i>
   <i type="int" name="NGXF">   324</i>
   <i type="int" name="NGYF">   324</i>
   <i type="int" name="NGZF">   224</i>
   <i type="logical" name="ADDGRID"> F  </i>
  </separator>
  <separator name="ionic" >
   <i type="int" name="NSW">     0</i>
   <i type="int" name="IBRION">    -1</i>
   <i type="int" name="MDALGO">     0</i>
   <i type="int" name="ISIF">     2</i>
   <i name="PSTRESS">      0.00000000</i>
   <i name="EDIFFG">     -0.01000000</i>
   <i type="int" name="NFREE">     0</i>
   <i name="POTIM">      0.30000000</i>
   <i name="SMASS">     -3.00000000</i>
   <i name="SCALEE">      1.00000000</i>
  </separator>
  <separator name="ionic md" >
   <i name="TEBEG">      0.00010000</i>
   <i name="TEEND">      0.00010000</i>
   <i type="int" name="NBLOCK">     1</i>
   <i type="int" name="KBLOCK">     1</i>
   <i type="int" name="NPACO">   256</i>
   <i name="APACO">     16.00000000</i>
  </separator>
  <separator name="symmetry" >
   <i type="int" name="ISYM">     2</i>
   <i name="SYMPREC">      0.00001000</i>
  </separator>
  <separator name="dos" >
   <i type="int" name="LORBIT">     0</i>
   <v name="RWIGS">     -1.00000000     -1.00000000     -1.00000000</v>
   <i type="int" name="NEDOS">   301</i>
   <i name="EMIN">     10.00000000</i>
   <i name="EMAX">    -10.00000000</i>
   <i name="EFERMI">      0.00000000</i>
  </separator>
  <separator name="writing" >
   <i type="int" name="NWRITE">     0</i>
   <i type="logical" name="LWAVE"> F  </i>
   <i type="logical" name="LDOWNSAMPLE"> F  </i>
   <i type="logical" name="LCHARG"> F  </i>
   <i type="logical" name="LPARD"> F  </i>
   <i type="logical" name="LVTOT"> F  </i>
   <i type="logical" name="LVHAR"> F  </i>
   <i type="logical" name="LELF"> F  </i>
   <i type="logical" name="LOPTICS"> F  </i>
   <v name="STM">      0.00000000      0.00000000      0.00000000      0.00000000      0.00000000      0.00000000      0.00000000</v>
  </separator>
  <separator name="performance" >
   <i type="int" name="NPAR">    16</i>
   <i type="int" name="NSIM">     4</i>
   <i type="int" name="NBLK">    -1</i>
   <i type="logical" name="LPLANE"> T  </i>
   <i type="logical" name="LSCALAPACK"> T  </i>
   <i type="logical" name="LSCAAWARE"> F  </i>
   <i type="logical" name="LSCALU"> F  </i>
   <i type="logical" name="LASYNC"> F  </i>
   <i type="logical" name="LORBITALREAL"> F  </i>
  </separator>
  <separator name="miscellaneous" >
   <i type="int" name="IDIOT">     3</i>
   <i type="int" name="ISPECIAL">     0</i>
   <i type="logical" name="LMUSIC"> F  </i>
   <v name="POMASS">      1.00000000     14.00100000     12.01100000</v>
   <v name="DARWINR">      0.00000000      0.00000000      0.00000000</v>
   <v name="DARWINV">      1.00000000      1.00000000      1.00000000</v>
   <i type="logical" name="LCORR"> T  </i>
  </separator>
  <i type="logical" name="GGA_COMPAT"> T  </i>
  <i type="logical" name="LBERRY"> F  </i>
  <i type="int" name="ICORELEVEL">     0</i>
  <i type="logical" name="LDAU"> F  </i>
  <i type="int" name="I_CONSTRAINED_M">     0</i>
  <separator name="electronic exchange-correlation" >
   <i type="string" name="GGA">PE</i>
   <i type="int" name="VOSKOWN">     0</i>
   <i type="logical" name="LHFCALC"> F  </i>
   <i type="string" name="PRECFOCK"></i>
   <i type="logical" name="LSYMGRAD"> F  </i>
   <i type="logical" name="LHFONE"> F  </i>
   <i type="logical" name="LRHFCALC"> F  </i>
   <i type="logical" name="LTHOMAS"> F  </i>
   <i type="logical" name="LMODELHF"> F  </i>
   <i name="ENCUT4O">     -1.00000000</i>
   <i type="int" name="EXXOEP">     0</i>
   <i type="int" name="FOURORBIT">     0</i>
   <i name="AEXX">      0.00000000</i>
   <i name="HFALPHA">      0.00000000</i>
   <i name="MCALPHA">      0.00000000</i>
   <i name="ALDAX">      1.00000000</i>
   <i name="AGGAX">      1.00000000</i>
   <i name="ALDAC">      1.00000000</i>
   <i name="AGGAC">      1.00000000</i>
   <i type="int" name="NKREDX">     1</i>
   <i type="int" name="NKREDY">     1</i>
   <i type="int" name="NKREDZ">     1</i>
   <i type="logical" name="SHIFTRED"> F  </i>
   <i type="logical" name="ODDONLY"> F  </i>
   <i type="logical" name="EVENONLY"> F  </i>
   <i type="int" name="LMAXFOCK">     0</i>
   <i type="int" name="NMAXFOCKAE">     0</i>
   <i type="logical" name="LFOCKAEDFT"> F  </i>
   <i name="HFSCREEN">      0.00000000</i>
   <i name="HFSCREENC">      0.00000000</i>
   <i type="int" name="NBANDSGWLOW">     0</i>
  </separator>
  <separator name="vdW DFT" >
   <i type="logical" name="LUSE_VDW"> F  </i>
   <i name="Zab_VDW">     -0.84910000</i>
   <i name="PARAM1">      0.12340000</i>
   <i name="PARAM2">      1.00000000</i>
   <i name="PARAM3">      0.00000000</i>
  </separator>
  <separator name="model GW" >
   <i type="int" name="MODEL_GW">     0</i>
   <i name="MODEL_EPS0">     82.79686304</i>
   <i name="MODEL_ALPHA">      1.00000000</i>
  </separator>
  <separator name="linear response parameters" >
   <i type="logical" name="LEPSILON"> F  </i>
   <i type="logical" name="LRPA"> F  </i>
   <i type="logical" name="LNABLA"> F  </i>
   <i type="logical" name="LVEL"> F  </i>
   <i type="int" name="KINTER">     0</i>
   <i name="CSHIFT">      0.10000000</i>
   <i name="OMEGAMAX">     -1.00000000</i>
   <i name="DEG_THRESHOLD">      0.00200000</i>
   <i name="RTIME">     -0.10000000</i>
   <i name="WPLASMAI">      0.00000000</i>
   <v name="DFIELD">      0.00000000      0.00000000      0.00000000</v>
   <v name="WPLASMA">      0.00000000      0.00000000      0.00000000      0.00000000      0.00000000      0.00000000      0.00000000      0.00000000      0.00000000</v>
  </separator>
  <separator name="orbital magnetization" >
   <i type="logical" name="NUCIND"> F  </i>
   <v name="MAGPOS">      0.00000000      0.00000000      0.00000000</v>
   <i type="logical" name="LNICSALL"> T  </i>
   <i type="logical" name="ORBITALMAG"> F  </i>
   <i type="logical" name="LMAGBLOCH"> F  </i>
   <i type="logical" name="LCHIMAG"> F  </i>
   <i type="logical" name="LGAUGE"> T  </i>
   <i type="int" name="MAGATOM">     0</i>
   <v name="MAGDIPOL">      0.00000000      0.00000000      0.00000000</v>
   <v name="AVECCONST">      0.00000000      0.00000000      0.00000000</v>
  </separator>
  <separator name="response functions" >
   <i type="logical" name="LADDER"> F  </i>
   <i type="logical" name="LRPAFORCE"> F  </i>
   <i type="logical" name="LFXC"> F  </i>
   <i type="logical" name="LHARTREE"> T  </i>
   <i type="int" name="IBSE">     0</i>
   <v type="int" name="KPOINT">    -1     0     0     0</v>
   <i type="logical" name="LTCTE"> F  </i>
   <i type="logical" name="LTETE"> F  </i>
   <i type="logical" name="LTRIPLET"> F  </i>
   <i type="logical" name="LFXCEPS"> F  </i>
   <i type="logical" name="LFXHEG"> F  </i>
   <i type="int" name="NATURALO">     2</i>
   <i type="logical" name="L2ORDER"> F  </i>
   <i type="logical" name="LMP2LT"> F  </i>
   <i type="logical" name="LUSEW"> F  </i>
   <i name="ENCUTGW">     -2.00000000</i>
   <i name="ENCUTGWSOFT">     -2.00000000</i>
   <i name="ENCUTLF">     -1.00000000</i>
   <i type="int" name="LMAXMP2">    -1</i>
   <i name="SCISSOR">      0.00000000</i>
   <i type="int" name="NOMEGA">     0</i>
   <i type="int" name="NOMEGAR">     0</i>
   <i type="int" name="NBANDSGW">    -1</i>
   <i type="int" name="NBANDSO">    -1</i>
   <i type="int" name="NBANDSV">    -1</i>
   <i type="int" name="NELM">   200</i>
   <i type="int" name="NELMHF">     1</i>
   <i type="int" name="DIM">     3</i>
   <i type="int" name="ANTIRES">     0</i>
   <i name="OMEGAMAX">    -30.00000000</i>
   <i name="OMEGAMIN">    -30.00000000</i>
   <i name="OMEGATL">   -200.00000000</i>
   <i type="int" name="OMEGAGRID">   140</i>
   <i name="CSHIFT">     -0.10000000</i>
   <i type="logical" name="SELFENERGY"> F  </i>
   <i type="logical" name="LSPECTRAL"> F  </i>
   <i type="logical" name="LSPECTRALGW"> F  </i>
   <i type="logical" name="LSINGLES"> F  </i>
   <i type="logical" name="LFERMIGW"> F  </i>
   <i type="logical" name="ODDONLYGW"> F  </i>
   <i type="logical" name="EVENONLYGW"> F  </i>
   <i type="int" name="NKREDLFX">     1</i>
   <i type="int" name="NKREDLFY">     1</i>
   <i type="int" name="NKREDLFZ">     1</i>
   <i type="int" name="MAXMEM">  2800</i>
   <i type="int" name="TELESCOPE">     0</i>
   <i type="int" name="TAUPAR">     1</i>
   <i type="int" name="OMEGAPAR">    -1</i>
   <i name="LAMBDA">      1.00000000</i>
  </separator>
  <separator name="External order field" >
   <i name="OFIELD_KAPPA">      0.00000000</i>
   <v name="OFIELD_K">      0.00000000      0.00000000      0.00000000</v>
   <i name="OFIELD_Q6_NEAR">      0.00000000</i>
   <i name="OFIELD_Q6_FAR">      0.00000000</i>
   <i name="OFIELD_A">      0.00000000</i>
  </separator>
  <separator name="solvation model" >
   <i type="logical" name="LSOL"> F  </i>
  </separator>
 </parameters>
 <atominfo>
  <atoms>     108 </atoms>
  <types>       3 </types>
  <array name="atoms" >
   <dimension dim="1">ion</dimension>
   <field type="string">element</field>
   <field type="int">atomtype</field>
   <set>
    <rc><c>H </c><c>   1</c></rc>
    <rc><c>H </c><c>   1</c></rc>
    <rc><c>H </c><c>   1</c></rc>
    <rc><c>H </c><c>   1</c></rc>
    <rc><c>H </c><c>   1</c></rc>
    <rc><c>H </c><c>   1</c></rc>
    <rc><c>H </c><c>   1</c></rc>
    <rc><c>H </c><c>   1</c></rc>
    <rc><c>H </c><c>   1</c></rc>
    <rc><c>H </c><c>   1</c></rc>
    <rc><c>H </c><c>   1</c></rc>
    <rc><c>H </c><c>   1</c></rc>
    <rc><c>H </c><c>   1</c></rc>
    <rc><c>H </c><c>   1</c></rc>
    <rc><c>H </c><c>   1</c></rc>
    <rc><c>H </c><c>   1</c></rc>
    <rc><c>H </c><c>   1</c></rc>
    <rc><c>H </c><c>   1</c></rc>
    <rc><c>H </c><c>   1</c></rc>
    <rc><c>H </c><c>   1</c></rc>
    <rc><c>H </c><c>   1</c></rc>
    <rc><c>H </c><c>   1</c></rc>
    <rc><c>H </c><c>   1</c></rc>
    <rc><c>H </c><c>   1</c></rc>
    <rc><c>H </c><c>   1</c></rc>
    <rc><c>H </c><c>   1</c></rc>
    <rc><c>H </c><c>   1</c></rc>
    <rc><c>H </c><c>   1</c></rc>
    <rc><c>H </c><c>   1</c></rc>
    <rc><c>H </c><c>   1</c></rc>
    <rc><c>H </c><c>   1</c></rc>
    <rc><c>H </c><c>   1</c></rc>
    <rc><c>H </c><c>   1</c></rc>
    <rc><c>H </c><c>   1</c></rc>
    <rc><c>H </c><c>   1</c></rc>
    <rc><c>H </c><c>   1</c></rc>
    <rc><c>H </c><c>   1</c></rc>
    <rc><c>H </c><c>   1</c></rc>
    <rc><c>H </c><c>   1</c></rc>
    <rc><c>H </c><c>   1</c></rc>
    <rc><c>H </c><c>   1</c></rc>
    <rc><c>H </c><c>   1</c></rc>
    <rc><c>H </c><c>   1</c></rc>
    <rc><c>H </c><c>   1</c></rc>
    <rc><c>H </c><c>   1</c></rc>
    <rc><c>H </c><c>   1</c></rc>
    <rc><c>H </c><c>   1</c></rc>
    <rc><c>H </c><c>   1</c></rc>
    <rc><c>N </c><c>   2</c></rc>
    <rc><c>N </c><c>   2</c></rc>
    <rc><c>N </c><c>   2</c></rc>
    <rc><c>N </c><c>   2</c></rc>
    <rc><c>N </c><c>   2</c></rc>
    <rc><c>N </c><c>   2</c></rc>
    <rc><c>C </c><c>   3</c></rc>
    <rc><c>C </c><c>   3</c></rc>
    <rc><c>C </c><c>   3</c></rc>
    <rc><c>C </c><c>   3</c></rc>
    <rc><c>C </c><c>   3</c></rc>
    <rc><c>C </c><c>   3</c></rc>
    <rc><c>C </c><c>   3</c></rc>
    <rc><c>C </c><c>   3</c></rc>
    <rc><c>C </c><c>   3</c></rc>
    <rc><c>C </c><c>   3</c></rc>
    <rc><c>C </c><c>   3</c></rc>
    <rc><c>C </c><c>   3</c></rc>
    <rc><c>C </c><c>   3</c></rc>
    <rc><c>C </c><c>   3</c></rc>
    <rc><c>C </c><c>   3</c></rc>
    <rc><c>C </c><c>   3</c></rc>
    <rc><c>C </c><c>   3</c></rc>
    <rc><c>C </c><c>   3</c></rc>
    <rc><c>C </c><c>   3</c></rc>
    <rc><c>C </c><c>   3</c></rc>
    <rc><c>C </c><c>   3</c></rc>
    <rc><c>C </c><c>   3</c></rc>
    <rc><c>C </c><c>   3</c></rc>
    <rc><c>C </c><c>   3</c></rc>
    <rc><c>C </c><c>   3</c></rc>
    <rc><c>C </c><c>   3</c></rc>
    <rc><c>C </c><c>   3</c></rc>
    <rc><c>C </c><c>   3</c></rc>
    <rc><c>C </c><c>   3</c></rc>
    <rc><c>C </c><c>   3</c></rc>
    <rc><c>C </c><c>   3</c></rc>
    <rc><c>C </c><c>   3</c></rc>
    <rc><c>C </c><c>   3</c></rc>
    <rc><c>C </c><c>   3</c></rc>
    <rc><c>C </c><c>   3</c></rc>
    <rc><c>C </c><c>   3</c></rc>
    <rc><c>C </c><c>   3</c></rc>
    <rc><c>C </c><c>   3</c></rc>
    <rc><c>C </c><c>   3</c></rc>
    <rc><c>C </c><c>   3</c></rc>
    <rc><c>C </c><c>   3</c></rc>
    <rc><c>C </c><c>   3</c></rc>
    <rc><c>C </c><c>   3</c></rc>
    <rc><c>C </c><c>   3</c></rc>
    <rc><c>C </c><c>   3</c></rc>
    <rc><c>C </c><c>   3</c></rc>
    <rc><c>C </c><c>   3</c></rc>
    <rc><c>C </c><c>   3</c></rc>
    <rc><c>C </c><c>   3</c></rc>
    <rc><c>C </c><c>   3</c></rc>
    <rc><c>C </c><c>   3</c></rc>
    <rc><c>C </c><c>   3</c></rc>
    <rc><c>C </c><c>   3</c></rc>
    <rc><c>C </c><c>   3</c></rc>
   </set>
  </array>
  <array name="atomtypes" >
   <dimension dim="1">type</dimension>
   <field type="int">atomspertype</field>
   <field type="string">element</field>
   <field>mass</field>
   <field>valence</field>
   <field type="string">pseudopotential</field>
   <set>
    <rc><c>  48</c><c>H </c><c>      1.00000000</c><c>      1.00000000</c><c>  PAW_PBE H 15Jun2001                   </c></rc>
    <rc><c>   6</c><c>N </c><c>     14.00100000</c><c>      5.00000000</c><c>  PAW_PBE N 08Apr2002                   </c></rc>
    <rc><c>  54</c><c>C </c><c>     12.01100000</c><c>      4.00000000</c><c>  PAW_PBE C 08Apr2002                   </c></rc>
   </set>
  </array>
 </atominfo>
 <structure name="initialpos" >
  <crystal>
   <varray name="basis" >
    <v>      29.32640261      -0.01564760       0.00000000 </v>
    <v>     -14.67670148      25.41741762       0.00000000 </v>
    <v>       0.00000000       0.00000000      20.00000000 </v>
   </varray>
   <i name="volume">  14903.43534663 </i>
   <varray name="rec_basis" >
    <v>       0.03410947       0.01969573       0.00000000 </v>
    <v>       0.00002100       0.03935523       0.00000000 </v>
    <v>       0.00000000       0.00000000       0.05000000 </v>
   </varray>
  </crystal>
  <varray name="positions" >
   <v>       0.28037989       0.56850080       0.47900484 </v>
   <v>       0.43138584       0.71219340       0.47819997 </v>
   <v>       0.28763273       0.71933371       0.47863524 </v>
   <v>       0.36988569       0.79403925       0.49174806 </v>
   <v>       0.42394360       0.63016617       0.49199966 </v>
   <v>       0.20573488       0.57595167       0.49283824 </v>
   <v>       0.72010133       0.43113767       0.52465469 </v>
   <v>       0.56787564       0.28884564       0.52539204 </v>
   <v>       0.71022974       0.27911305       0.52486018 </v>
   <v>       0.62783088       0.20501436       0.51572193 </v>
   <v>       0.57621191       0.37124462       0.51519845 </v>
   <v>       0.79416105       0.42288101       0.51516584 </v>
   <v>       0.50217026       0.96589950       0.60343569 </v>
   <v>       0.47661195       0.87184966       0.59930660 </v>
   <v>       0.49390451       0.11567390       0.60081095 </v>
   <v>       0.46820341       0.02164728       0.59499909 </v>
   <v>       0.46806611       0.79958084       0.45010181 </v>
   <v>       0.45685138       0.79483920       0.53775821 </v>
   <v>       0.46347692       0.49730360       0.60331977 </v>
   <v>       0.39506491       0.52305197       0.59976058 </v>
   <v>       0.62133494       0.50488847       0.59998261 </v>
   <v>       0.55316767       0.53088175       0.59482048 </v>
   <v>       0.33101041       0.53183520       0.45131100 </v>
   <v>       0.33807959       0.54347092       0.53883277 </v>
   <v>       0.03308397       0.53597285       0.60300701 </v>
   <v>       0.12732882       0.60443423       0.59962835 </v>
   <v>       0.88300114       0.37789417       0.59905345 </v>
   <v>       0.97720047       0.44618321       0.59399894 </v>
   <v>       0.20038396       0.66863783       0.45104833 </v>
   <v>       0.20477067       0.66186745       0.53869657 </v>
   <v>       0.54747784       0.04905106       0.40524566 </v>
   <v>       0.57058726       0.14234348       0.40969808 </v>
   <v>       0.45475753       0.87075377       0.38651953 </v>
   <v>       0.47867493       0.96438520       0.39048606 </v>
   <v>       0.54400449       0.20707245       0.46156969 </v>
   <v>       0.52825495       0.19976214       0.54813584 </v>
   <v>       0.50105741       0.45264800       0.40451477 </v>
   <v>       0.57097062       0.42909494       0.40846443 </v>
   <v>       0.41590818       0.54585276       0.38710660 </v>
   <v>       0.48553199       0.52173941       0.39050277 </v>
   <v>       0.66176076       0.45431174       0.45997836 </v>
   <v>       0.67112189       0.47087473       0.54626839 </v>
   <v>       0.95081381       0.49884619       0.40429098 </v>
   <v>       0.85733408       0.42876716       0.40802994 </v>
   <v>       0.12942955       0.58417862       0.38687813 </v>
   <v>       0.03562777       0.51451479       0.39007069 </v>
   <v>       0.79176859       0.33779434       0.45910671 </v>
   <v>       0.79914664       0.32807436       0.54522016 </v>
   <v>       0.39044098       0.77657674       0.47640377 </v>
   <v>       0.38586552       0.60951255       0.47679530 </v>
   <v>       0.22312156       0.61389446       0.47721746 </v>
   <v>       0.60722603       0.22325351       0.52724013 </v>
   <v>       0.61508688       0.39187645       0.52680506 </v>
   <v>       0.77598341       0.38402501       0.52663676 </v>
   <v>       0.36269163       0.72191621       0.47825827 </v>
   <v>       0.30704510       0.69592504       0.47871826 </v>
   <v>       0.27784042       0.64093281       0.47869013 </v>
   <v>       0.30383582       0.61133248       0.47895941 </v>
   <v>       0.35886906       0.63716914       0.47849145 </v>
   <v>       0.38852164       0.69276295       0.47849404 </v>
   <v>       0.63578708       0.27783458       0.52502521 </v>
   <v>       0.69136618       0.30304144       0.52445658 </v>
   <v>       0.72132967       0.35801745       0.52471771 </v>
   <v>       0.69613340       0.38834561       0.52440642 </v>
   <v>       0.64109766       0.36327543       0.52487972 </v>
   <v>       0.61070663       0.30773277       0.52476808 </v>
   <v>       0.46399815       0.86473130       0.49264538 </v>
   <v>       0.49205410       0.97226163       0.49735950 </v>
   <v>       0.49107150       0.94509918       0.55571457 </v>
   <v>       0.47709897       0.89217383       0.55332225 </v>
   <v>       0.50555030       0.10102609       0.55767159 </v>
   <v>       0.49158045       0.04814665       0.55470562 </v>
   <v>       0.44665530       0.80697465       0.49017245 </v>
   <v>       0.40055175       0.53607057       0.49318828 </v>
   <v>       0.47993027       0.50778384       0.49725848 </v>
   <v>       0.45377692       0.50859901       0.55574504 </v>
   <v>       0.41487180       0.52268116       0.55367460 </v>
   <v>       0.59498212       0.49349759       0.55690649 </v>
   <v>       0.55619301       0.50766653       0.55427146 </v>
   <v>       0.36011479       0.55342841       0.49102647 </v>
   <v>       0.13491801       0.59926029       0.49302614 </v>
   <v>       0.02721492       0.51979236       0.49687060 </v>
   <v>       0.05414108       0.54580431       0.55545378 </v>
   <v>       0.10715888       0.58475182       0.55348339 </v>
   <v>       0.89791077       0.40435035       0.55608836 </v>
   <v>       0.95088639       0.44322352       0.55353662 </v>
   <v>       0.19275804       0.63968481       0.49098988 </v>
   <v>       0.46529294       0.89174141       0.43417047 </v>
   <v>       0.47901809       0.94451706       0.43644475 </v>
   <v>       0.50630145       0.02823811       0.50000110 </v>
   <v>       0.53490028       0.06320020       0.44793323 </v>
   <v>       0.54835648       0.11591325       0.45075100 </v>
   <v>       0.53414092       0.13569991       0.50583966 </v>
   <v>       0.55160715       0.19343647       0.50986226 </v>
   <v>       0.42629420       0.53501575       0.43458820 </v>
   <v>       0.46529608       0.52118507       0.43654733 </v>
   <v>       0.52156036       0.49334639       0.49957450 </v>
   <v>       0.52778660       0.46491725       0.44720215 </v>
   <v>       0.56690150       0.45121902       0.44972498 </v>
   <v>       0.60090008       0.46503944       0.50479151 </v>
   <v>       0.64099581       0.44731242       0.50854802 </v>
   <v>       0.10816167       0.57366837       0.43433794 </v>
   <v>       0.05529905       0.53462532       0.43618509 </v>
   <v>       0.97114087       0.47806069       0.49905264 </v>
   <v>       0.93640124       0.47193894       0.44679157 </v>
   <v>       0.88357148       0.43272370       0.44921844 </v>
   <v>       0.86344553       0.39851106       0.50407031 </v>
   <v>       0.80559241       0.35832510       0.50780591 </v>
  </varray>
 </structure>
 <calculation>
  <scstep>
   <time name="dav">  518.57  524.19</time>
   <time name="total">  518.81  524.45</time>
   <energy>
    <i name="alphaZ">     26.73425851 </i>
    <i name="ewald">  32923.78156011 </i>
    <i name="hartreedc"> -41191.54417276 </i>
    <i name="XCdc">    996.93274791 </i>
    <i name="pawpsdc">  26037.22535587 </i>
    <i name="pawaedc"> -26084.27390200 </i>
    <i name="eentropy">     -0.00000000 </i>
    <i name="bandstr">  -3553.81389456 </i>
    <i name="atom">  10132.57250121 </i>
    <i name="e_fr_energy">   -712.38554571 </i>
    <i name="e_wo_entrp">   -712.38554571 </i>
    <i name="e_0_energy">   -712.38554571 </i>
   </energy>
  </scstep>
  <scstep>
   <time name="dav">  563.65  569.76</time>
   <time name="total">  563.66  569.76</time>
   <energy>
    <i name="e_fr_energy">   -712.74269490 </i>
    <i name="e_wo_entrp">   -712.74269490 </i>
    <i name="e_0_energy">   -712.74269490 </i>
   </energy>
  </scstep>
  <scstep>
   <time name="dav">  639.85  646.66</time>
   <time name="total">  639.85  646.66</time>
   <energy>
    <i name="e_fr_energy">   -712.75383448 </i>
    <i name="e_wo_entrp">   -712.75383448 </i>
    <i name="e_0_energy">   -712.75383448 </i>
   </energy>
  </scstep>
  <scstep>
   <time name="dav">  564.37  570.29</time>
   <time name="total">  564.37  570.29</time>
   <energy>
    <i name="e_fr_energy">   -712.75410011 </i>
    <i name="e_wo_entrp">   -712.75410011 </i>
    <i name="e_0_energy">   -712.75410011 </i>
   </energy>
  </scstep>
  <scstep>
   <time name="dav">  534.62  540.25</time>
   <time name="total">  534.62  540.25</time>
   <energy>
    <i name="alphaZ">     26.73425851 </i>
    <i name="ewald">  32923.78156011 </i>
    <i name="hartreedc"> -41191.54417276 </i>
    <i name="XCdc">    996.93274791 </i>
    <i name="pawpsdc">  26037.22535587 </i>
    <i name="pawaedc"> -26084.27390200 </i>
    <i name="eentropy">     -0.00000000 </i>
    <i name="bandstr">  -3554.18245887 </i>
    <i name="atom">  10132.57250121 </i>
    <i name="e_fr_energy">   -712.75411002 </i>
    <i name="e_wo_entrp">   -712.75411002 </i>
    <i name="e_0_energy">   -712.75411002 </i>
   </energy>
  </scstep>
  <structure>
   <crystal>
    <varray name="basis" >
     <v>      29.32640261      -0.01564760       0.00000000 </v>
     <v>     -14.67670148      25.41741762       0.00000000 </v>
     <v>       0.00000000       0.00000000      20.00000000 </v>
    </varray>
    <i name="volume">  14903.43534663 </i>
    <varray name="rec_basis" >
     <v>       0.03410947       0.01969573       0.00000000 </v>
     <v>       0.00002100       0.03935523       0.00000000 </v>
     <v>       0.00000000       0.00000000       0.05000000 </v>
    </varray>
   </crystal>
   <varray name="positions" >
    <v>       0.28037989       0.56850080       0.47900484 </v>
    <v>       0.43138584       0.71219340       0.47819997 </v>
    <v>       0.28763273       0.71933371       0.47863524 </v>
    <v>       0.36988569       0.79403925       0.49174806 </v>
    <v>       0.42394360       0.63016617       0.49199966 </v>
    <v>       0.20573488       0.57595167       0.49283824 </v>
    <v>       0.72010133       0.43113767       0.52465469 </v>
    <v>       0.56787564       0.28884564       0.52539204 </v>
    <v>       0.71022974       0.27911305       0.52486018 </v>
    <v>       0.62783088       0.20501436       0.51572193 </v>
    <v>       0.57621191       0.37124462       0.51519845 </v>
    <v>       0.79416105       0.42288101       0.51516584 </v>
    <v>       0.50217026       0.96589950       0.60343569 </v>
    <v>       0.47661195       0.87184966       0.59930660 </v>
    <v>       0.49390451       0.11567390       0.60081095 </v>
    <v>       0.46820341       0.02164728       0.59499909 </v>
    <v>       0.46806611       0.79958084       0.45010181 </v>
    <v>       0.45685138       0.79483920       0.53775821 </v>
    <v>       0.46347692       0.49730360       0.60331977 </v>
    <v>       0.39506491       0.52305197       0.59976058 </v>
    <v>       0.62133494       0.50488847       0.59998261 </v>
    <v>       0.55316767       0.53088175       0.59482048 </v>
    <v>       0.33101041       0.53183520       0.45131100 </v>
    <v>       0.33807959       0.54347092       0.53883277 </v>
    <v>       0.03308397       0.53597285       0.60300701 </v>
    <v>       0.12732882       0.60443423       0.59962835 </v>
    <v>       0.88300114       0.37789417       0.59905345 </v>
    <v>       0.97720047       0.44618321       0.59399894 </v>
    <v>       0.20038396       0.66863783       0.45104833 </v>
    <v>       0.20477067       0.66186745       0.53869657 </v>
    <v>       0.54747784       0.04905106       0.40524566 </v>
    <v>       0.57058726       0.14234348       0.40969808 </v>
    <v>       0.45475753       0.87075377       0.38651953 </v>
    <v>       0.47867493       0.96438520       0.39048606 </v>
    <v>       0.54400449       0.20707245       0.46156969 </v>
    <v>       0.52825495       0.19976214       0.54813584 </v>
    <v>       0.50105741       0.45264800       0.40451477 </v>
    <v>       0.57097062       0.42909494       0.40846443 </v>
    <v>       0.41590818       0.54585276       0.38710660 </v>
    <v>       0.48553199       0.52173941       0.39050277 </v>
    <v>       0.66176076       0.45431174       0.45997836 </v>
    <v>       0.67112189       0.47087473       0.54626839 </v>
    <v>       0.95081381       0.49884619       0.40429098 </v>
    <v>       0.85733408       0.42876716       0.40802994 </v>
    <v>       0.12942955       0.58417862       0.38687813 </v>
    <v>       0.03562777       0.51451479       0.39007069 </v>
    <v>       0.79176859       0.33779434       0.45910671 </v>
    <v>       0.79914664       0.32807436       0.54522016 </v>
    <v>       0.39044098       0.77657674       0.47640377 </v>
    <v>       0.38586552       0.60951255       0.47679530 </v>
    <v>       0.22312156       0.61389446       0.47721746 </v>
    <v>       0.60722603       0.22325351       0.52724013 </v>
    <v>       0.61508688       0.39187645       0.52680506 </v>
    <v>       0.77598341       0.38402501       0.52663676 </v>
    <v>       0.36269163       0.72191621       0.47825827 </v>
    <v>       0.30704510       0.69592504       0.47871826 </v>
    <v>       0.27784042       0.64093281       0.47869013 </v>
    <v>       0.30383582       0.61133248       0.47895941 </v>
    <v>       0.35886906       0.63716914       0.47849145 </v>
    <v>       0.38852164       0.69276295       0.47849404 </v>
    <v>       0.63578708       0.27783458       0.52502521 </v>
    <v>       0.69136618       0.30304144       0.52445658 </v>
    <v>       0.72132967       0.35801745       0.52471771 </v>
    <v>       0.69613340       0.38834561       0.52440642 </v>
    <v>       0.64109766       0.36327543       0.52487972 </v>
    <v>       0.61070663       0.30773277       0.52476808 </v>
    <v>       0.46399815       0.86473130       0.49264538 </v>
    <v>       0.49205410       0.97226163       0.49735950 </v>
    <v>       0.49107150       0.94509918       0.55571457 </v>
    <v>       0.47709897       0.89217383       0.55332225 </v>
    <v>       0.50555030       0.10102609       0.55767159 </v>
    <v>       0.49158045       0.04814665       0.55470562 </v>
    <v>       0.44665530       0.80697465       0.49017245 </v>
    <v>       0.40055175       0.53607057       0.49318828 </v>
    <v>       0.47993027       0.50778384       0.49725848 </v>
    <v>       0.45377692       0.50859901       0.55574504 </v>
    <v>       0.41487180       0.52268116       0.55367460 </v>
    <v>       0.59498212       0.49349759       0.55690649 </v>
    <v>       0.55619301       0.50766653       0.55427146 </v>
    <v>       0.36011479       0.55342841       0.49102647 </v>
    <v>       0.13491801       0.59926029       0.49302614 </v>
    <v>       0.02721492       0.51979236       0.49687060 </v>
    <v>       0.05414108       0.54580431       0.55545378 </v>
    <v>       0.10715888       0.58475182       0.55348339 </v>
    <v>       0.89791077       0.40435035       0.55608836 </v>
    <v>       0.95088639       0.44322352       0.55353662 </v>
    <v>       0.19275804       0.63968481       0.49098988 </v>
    <v>       0.46529294       0.89174141       0.43417047 </v>
    <v>       0.47901809       0.94451706       0.43644475 </v>
    <v>       0.50630145       0.02823811       0.50000110 </v>
    <v>       0.53490028       0.06320020       0.44793323 </v>
    <v>       0.54835648       0.11591325       0.45075100 </v>
    <v>       0.53414092       0.13569991       0.50583966 </v>
    <v>       0.55160715       0.19343647       0.50986226 </v>
    <v>       0.42629420       0.53501575       0.43458820 </v>
    <v>       0.46529608       0.52118507       0.43654733 </v>
    <v>       0.52156036       0.49334639       0.49957450 </v>
    <v>       0.52778660       0.46491725       0.44720215 </v>
    <v>       0.56690150       0.45121902       0.44972498 </v>
    <v>       0.60090008       0.46503944       0.50479151 </v>
    <v>       0.64099581       0.44731242       0.50854802 </v>
    <v>       0.10816167       0.57366837       0.43433794 </v>
    <v>       0.05529905       0.53462532       0.43618509 </v>
    <v>       0.97114087       0.47806069       0.49905264 </v>
    <v>       0.93640124       0.47193894       0.44679157 </v>
    <v>       0.88357148       0.43272370       0.44921844 </v>
    <v>       0.86344553       0.39851106       0.50407031 </v>
    <v>       0.80559241       0.35832510       0.50780591 </v>
   </varray>
  </structure>
  <varray name="forces" >
   <v>       0.00200463      -0.00079785      -0.00033312 </v>
   <v>       0.00124104       0.00135080      -0.00050779 </v>
   <v>      -0.00394590       0.00118588      -0.00007260 </v>
   <v>      -0.00012968       0.00221928       0.00106039 </v>
   <v>       0.00498327       0.00123908       0.00267913 </v>
   <v>       0.00039624      -0.00360477      -0.00032224 </v>
   <v>       0.00012934       0.00596921      -0.00002529 </v>
   <v>      -0.00293745      -0.00000416      -0.00045867 </v>
   <v>       0.00029162      -0.00126065      -0.00052776 </v>
   <v>       0.00636563      -0.00211862      -0.00195735 </v>
   <v>       0.00326970       0.00184493       0.00081044 </v>
   <v>       0.00018250       0.00764686      -0.00181949 </v>
   <v>       0.00227110       0.00105602      -0.00064058 </v>
   <v>       0.00228676      -0.00058022      -0.00002151 </v>
   <v>       0.00265930       0.00087404      -0.00125033 </v>
   <v>       0.00327712       0.00003108       0.00309913 </v>
   <v>       0.00281154      -0.00089397       0.00039203 </v>
   <v>       0.00252228       0.00111135       0.00026428 </v>
   <v>      -0.00083656      -0.00395840       0.00070368 </v>
   <v>       0.00020307      -0.00274941      -0.00109032 </v>
   <v>       0.00005352      -0.00259976       0.00405744 </v>
   <v>      -0.00314938       0.00154570       0.00474745 </v>
   <v>      -0.00433954      -0.00350412      -0.00572181 </v>
   <v>      -0.00412453      -0.00219790       0.00654898 </v>
   <v>      -0.00093256      -0.00006685      -0.00122784 </v>
   <v>      -0.00365614       0.00381431       0.00080509 </v>
   <v>      -0.00111246       0.00115428       0.00118701 </v>
   <v>      -0.00270831       0.00162969       0.00067215 </v>
   <v>      -0.00139835       0.00021327       0.00100432 </v>
   <v>      -0.00319687       0.00060864      -0.00000701 </v>
   <v>      -0.00153004      -0.00218353      -0.00135956 </v>
   <v>      -0.00277227       0.00044426      -0.00008794 </v>
   <v>      -0.00312512      -0.00108390       0.00208943 </v>
   <v>      -0.00259032      -0.00050767       0.00111961 </v>
   <v>       0.00086156       0.00201705       0.00330183 </v>
   <v>      -0.00168997       0.00134095       0.00027751 </v>
   <v>      -0.00422994       0.00199416      -0.00461900 </v>
   <v>       0.00215006       0.00084138      -0.00263511 </v>
   <v>       0.00149162       0.00106224       0.00109633 </v>
   <v>       0.00272748       0.00026158      -0.00050293 </v>
   <v>       0.00197321       0.00571334      -0.00350750 </v>
   <v>      -0.00025126       0.00021376       0.00134885 </v>
   <v>       0.00216227      -0.00162566      -0.00197711 </v>
   <v>       0.00180096      -0.00294581       0.00050861 </v>
   <v>       0.00054811       0.00036637      -0.00043163 </v>
   <v>       0.00203293      -0.00204356       0.00219331 </v>
   <v>       0.00168587      -0.00192288      -0.00514611 </v>
   <v>       0.00206451      -0.00235317       0.00312174 </v>
   <v>      -0.00331638       0.00369227      -0.00119220 </v>
   <v>       0.00148332       0.00644545      -0.00324676 </v>
   <v>       0.00296896      -0.00377003      -0.00169788 </v>
   <v>      -0.00271053       0.00172721       0.00347673 </v>
   <v>      -0.00480758      -0.00029143       0.00223630 </v>
   <v>      -0.00139538       0.00028592       0.00528573 </v>
   <v>       0.00870739      -0.00050133      -0.00195170 </v>
   <v>       0.00062306       0.00342540       0.00038896 </v>
   <v>       0.00387971      -0.00478062       0.00058662 </v>
   <v>      -0.00349947      -0.00199792       0.00027058 </v>
   <v>      -0.00542791      -0.00108090      -0.00363125 </v>
   <v>      -0.00038294       0.00249058       0.00174002 </v>
   <v>       0.00686921      -0.00128905       0.00214323 </v>
   <v>       0.00086641      -0.00424671       0.00058919 </v>
   <v>       0.00195311      -0.00656195      -0.00223154 </v>
   <v>      -0.00408367      -0.00169017      -0.00096217 </v>
   <v>      -0.00475881       0.00373507      -0.00075591 </v>
   <v>      -0.00377956       0.00660163      -0.00291432 </v>
   <v>       0.00212308      -0.00034104      -0.00154724 </v>
   <v>       0.00305077      -0.00121955      -0.00207269 </v>
   <v>       0.00064055       0.00134570       0.00238852 </v>
   <v>       0.00128962       0.00004577       0.00203389 </v>
   <v>      -0.00071540      -0.00106843       0.00180661 </v>
   <v>       0.00067745       0.00395127       0.00128344 </v>
   <v>       0.00062021      -0.00694661      -0.00011429 </v>
   <v>       0.00231094       0.00002031       0.00022048 </v>
   <v>      -0.00149716       0.00222751      -0.00044298 </v>
   <v>      -0.00199703      -0.00040341       0.00185529 </v>
   <v>      -0.00175330      -0.00002200      -0.00046244 </v>
   <v>       0.00084165       0.00007365       0.00019238 </v>
   <v>       0.00000129      -0.00126441      -0.00107963 </v>
   <v>       0.00673959      -0.00166845       0.00027044 </v>
   <v>      -0.00051457      -0.00064150      -0.00076200 </v>
   <v>       0.00021394      -0.00257714       0.00240637 </v>
   <v>      -0.00009591       0.00043287      -0.00043819 </v>
   <v>      -0.00416794      -0.00172322       0.00214592 </v>
   <v>      -0.00177800       0.00071806      -0.00039198 </v>
   <v>      -0.00013095       0.00234598       0.00256341 </v>
   <v>       0.00405033       0.00173493      -0.00270571 </v>
   <v>       0.00044116       0.00110582      -0.00275579 </v>
   <v>      -0.00132169      -0.00069682      -0.00177731 </v>
   <v>      -0.00385801      -0.00322261       0.00239705 </v>
   <v>       0.00290482       0.00070897      -0.00441112 </v>
   <v>      -0.00316321       0.00115674      -0.00085827 </v>
   <v>       0.00015332       0.00252294      -0.00142826 </v>
   <v>      -0.00583881      -0.00282956      -0.00074814 </v>
   <v>      -0.00148604       0.00071395       0.00002707 </v>
   <v>      -0.00049033       0.00143805       0.00019598 </v>
   <v>      -0.00552958       0.00360891      -0.00108171 </v>
   <v>       0.00124987      -0.00164066      -0.00180400 </v>
   <v>       0.00016092       0.00043220       0.00210050 </v>
   <v>       0.00714366      -0.00233835      -0.00341245 </v>
   <v>       0.00062923      -0.00548216       0.00261927 </v>
   <v>      -0.00348079      -0.00416931      -0.00006936 </v>
   <v>       0.00278800       0.00141862      -0.00117652 </v>
   <v>      -0.00291298      -0.00044249       0.00055482 </v>
   <v>      -0.00075710      -0.00148692       0.00031909 </v>
   <v>       0.00177709       0.00348222      -0.00358822 </v>
   <v>       0.00176578       0.00136993       0.00285784 </v>
   <v>       0.00093603      -0.00160984      -0.00008186 </v>
  </varray>
  <varray name="stress" >
   <v>       0.00806367      -0.00557879      -0.00063558 </v>
   <v>      -0.00557879       0.01507851       0.00055329 </v>
   <v>      -0.00063558       0.00055329      -0.13394678 </v>
  </varray>
  <energy>
   <i name="e_fr_energy">   -714.66978742 </i>
   <i name="e_wo_entrp">   -714.66978742 </i>
   <i name="e_0_energy">     -0.00000000 </i>
  </energy>
  <time name="totalsc"> 3423.31 3461.24</time>
  <eigenvalues>
   <array>
    <dimension dim="1">band</dimension>
    <dimension dim="2">kpoint</dimension>
    <dimension dim="3">spin</dimension>
    <field>eigene</field>
    <field>occ</field>
    <set>
     <set comment="spin 1">
      <set comment="kpoint 1">
       <r>  -23.0207    1.0000 </r>
       <r>  -22.9923    1.0000 </r>
       <r>  -22.7992    1.0000 </r>
       <r>  -22.7980    1.0000 </r>
       <r>  -22.7736    1.0000 </r>
       <r>  -22.7687    1.0000 </r>
       <r>  -21.4450    1.0000 </r>
       <r>  -21.4192    1.0000 </r>
       <r>  -21.4163    1.0000 </r>
       <r>  -20.9810    1.0000 </r>
       <r>  -20.9100    1.0000 </r>
       <r>  -20.9073    1.0000 </r>
       <r>  -20.0465    1.0000 </r>
       <r>  -19.8068    1.0000 </r>
       <r>  -19.4702    1.0000 </r>
       <r>  -19.4675    1.0000 </r>
       <r>  -19.0302    1.0000 </r>
       <r>  -18.5931    1.0000 </r>
       <r>  -18.5907    1.0000 </r>
       <r>  -18.3573    1.0000 </r>
       <r>  -18.3540    1.0000 </r>
       <r>  -18.3517    1.0000 </r>
       <r>  -18.1577    1.0000 </r>
       <r>  -18.1542    1.0000 </r>
       <r>  -18.1522    1.0000 </r>
       <r>  -18.0402    1.0000 </r>
       <r>  -17.6880    1.0000 </r>
       <r>  -17.6865    1.0000 </r>
       <r>  -17.1387    1.0000 </r>
       <r>  -17.1382    1.0000 </r>
       <r>  -16.7474    1.0000 </r>
       <r>  -16.4380    1.0000 </r>
       <r>  -16.4368    1.0000 </r>
       <r>  -15.9803    1.0000 </r>
       <r>  -15.9584    1.0000 </r>
       <r>  -15.9567    1.0000 </r>
       <r>  -15.1356    1.0000 </r>
       <r>  -15.1323    1.0000 </r>
       <r>  -15.1292    1.0000 </r>
       <r>  -14.7455    1.0000 </r>
       <r>  -14.7437    1.0000 </r>
       <r>  -14.6148    1.0000 </r>
       <r>  -14.4535    1.0000 </r>
       <r>  -14.4508    1.0000 </r>
       <r>  -14.4351    1.0000 </r>
       <r>  -14.1470    1.0000 </r>
       <r>  -14.1464    1.0000 </r>
       <r>  -13.8986    1.0000 </r>
       <r>  -13.8980    1.0000 </r>
       <r>  -13.8848    1.0000 </r>
       <r>  -13.7020    1.0000 </r>
       <r>  -13.7003    1.0000 </r>
       <r>  -13.1895    1.0000 </r>
       <r>  -13.1359    1.0000 </r>
       <r>  -12.7290    1.0000 </r>
       <r>  -12.7261    1.0000 </r>
       <r>  -12.6554    1.0000 </r>
       <r>  -12.1183    1.0000 </r>
       <r>  -11.9140    1.0000 </r>
       <r>  -11.8599    1.0000 </r>
       <r>  -11.8579    1.0000 </r>
       <r>  -11.5969    1.0000 </r>
       <r>  -11.5941    1.0000 </r>
       <r>  -11.5889    1.0000 </r>
       <r>  -11.4300    1.0000 </r>
       <r>  -11.4287    1.0000 </r>
       <r>  -11.2752    1.0000 </r>
       <r>  -11.1790    1.0000 </r>
       <r>  -11.0295    1.0000 </r>
       <r>  -11.0294    1.0000 </r>
       <r>  -11.0279    1.0000 </r>
       <r>  -10.8972    1.0000 </r>
       <r>  -10.8372    1.0000 </r>
       <r>  -10.8346    1.0000 </r>
       <r>  -10.7728    1.0000 </r>
       <r>  -10.7405    1.0000 </r>
       <r>  -10.7392    1.0000 </r>
       <r>  -10.4612    1.0000 </r>
       <r>  -10.4581    1.0000 </r>
       <r>  -10.4567    1.0000 </r>
       <r>  -10.4409    1.0000 </r>
       <r>  -10.4396    1.0000 </r>
       <r>  -10.2722    1.0000 </r>
       <r>  -10.2685    1.0000 </r>
       <r>  -10.1440    1.0000 </r>
       <r>  -10.0904    1.0000 </r>
       <r>  -10.0869    1.0000 </r>
       <r>   -9.9497    1.0000 </r>
       <r>   -9.9366    1.0000 </r>
       <r>   -9.8841    1.0000 </r>
       <r>   -9.8815    1.0000 </r>
       <r>   -9.8069    1.0000 </r>
       <r>   -9.7372    1.0000 </r>
       <r>   -9.7327    1.0000 </r>
       <r>   -9.6852    1.0000 </r>
       <r>   -9.6836    1.0000 </r>
       <r>   -9.4786    1.0000 </r>
       <r>   -9.2942    1.0000 </r>
       <r>   -9.2927    1.0000 </r>
       <r>   -9.2246    1.0000 </r>
       <r>   -9.1244    1.0000 </r>
       <r>   -8.9969    1.0000 </r>
       <r>   -8.9936    1.0000 </r>
       <r>   -8.9716    1.0000 </r>
       <r>   -8.6362    1.0000 </r>
       <r>   -8.6318    1.0000 </r>
       <r>   -8.6293    1.0000 </r>
       <r>   -8.5369    1.0000 </r>
       <r>   -8.4316    1.0000 </r>
       <r>   -8.3593    1.0000 </r>
       <r>   -8.3585    1.0000 </r>
       <r>   -8.3324    1.0000 </r>
       <r>   -8.1845    1.0000 </r>
       <r>   -8.1816    1.0000 </r>
       <r>   -8.0747    1.0000 </r>
       <r>   -8.0739    1.0000 </r>
       <r>   -8.0470    1.0000 </r>
       <r>   -8.0448    1.0000 </r>
       <r>   -8.0428    1.0000 </r>
       <r>   -7.8635    1.0000 </r>
       <r>   -7.8580    1.0000 </r>
       <r>   -7.8565    1.0000 </r>
       <r>   -7.7316    1.0000 </r>
       <r>   -7.7291    1.0000 </r>
       <r>   -7.7034    1.0000 </r>
       <r>   -7.0285    1.0000 </r>
       <r>   -7.0266    1.0000 </r>
       <r>   -6.9435    1.0000 </r>
       <r>   -6.9387    1.0000 </r>
       <r>   -6.6363    1.0000 </r>
       <r>   -6.5848    1.0000 </r>
       <r>   -6.5825    1.0000 </r>
       <r>   -6.1940    1.0000 </r>
       <r>   -6.1834    1.0000 </r>
       <r>   -6.1806    1.0000 </r>
       <r>   -6.1608    1.0000 </r>
       <r>   -6.1489    1.0000 </r>
       <r>   -6.1466    1.0000 </r>
       <r>   -5.4383    1.0000 </r>
       <r>   -5.4116    1.0000 </r>
       <r>   -5.4099    1.0000 </r>
       <r>   -4.8437    1.0000 </r>
       <r>   -4.7982    1.0000 </r>
       <r>   -4.0113    1.0000 </r>
       <r>   -4.0099    1.0000 </r>
       <r>   -3.9690    1.0000 </r>
       <r>   -3.9662    1.0000 </r>
       <r>   -1.7127    0.0000 </r>
       <r>   -1.7043    0.0000 </r>
       <r>   -1.7019    0.0000 </r>
       <r>   -1.1808    0.0000 </r>
       <r>   -1.1777    0.0000 </r>
       <r>   -1.1665    0.0000 </r>
       <r>   -1.0328    0.0000 </r>
       <r>   -1.0309    0.0000 </r>
       <r>   -1.0151    0.0000 </r>
       <r>   -0.4466    0.0000 </r>
       <r>   -0.4136    0.0000 </r>
       <r>   -0.4119    0.0000 </r>
       <r>   -0.3236    0.0000 </r>
       <r>   -0.2378    0.0000 </r>
       <r>   -0.2176    0.0000 </r>
       <r>   -0.2161    0.0000 </r>
       <r>   -0.0737    0.0000 </r>
       <r>   -0.0726    0.0000 </r>
       <r>    0.0531    0.0000 </r>
       <r>    0.0693    0.0000 </r>
       <r>    0.0714    0.0000 </r>
       <r>    0.1210    0.0000 </r>
       <r>    0.1219    0.0000 </r>
       <r>    0.1793    0.0000 </r>
       <r>    0.1834    0.0000 </r>
       <r>    0.2019    0.0000 </r>
       <r>    0.2440    0.0000 </r>
       <r>    0.2454    0.0000 </r>
       <r>    0.3077    0.0000 </r>
       <r>    0.3564    0.0000 </r>
       <r>    0.3573    0.0000 </r>
       <r>    0.4414    0.0000 </r>
       <r>    0.4546    0.0000 </r>
       <r>    0.4808    0.0000 </r>
       <r>    0.5643    0.0000 </r>
       <r>    0.5668    0.0000 </r>
       <r>    0.6194    0.0000 </r>
       <r>    0.6209    0.0000 </r>
       <r>    0.6529    0.0000 </r>
       <r>    0.6775    0.0000 </r>
       <r>    0.6790    0.0000 </r>
       <r>    0.7099    0.0000 </r>
       <r>    0.7664    0.0000 </r>
       <r>    0.7684    0.0000 </r>
       <r>    0.7830    0.0000 </r>
       <r>    0.8056    0.0000 </r>
       <r>    0.8238    0.0000 </r>
       <r>    0.8443    0.0000 </r>
       <r>    0.8478    0.0000 </r>
       <r>    0.8497    0.0000 </r>
       <r>    0.9025    0.0000 </r>
       <r>    0.9070    0.0000 </r>
       <r>    0.9125    0.0000 </r>
       <r>    0.9321    0.0000 </r>
       <r>    0.9335    0.0000 </r>
       <r>    0.9367    0.0000 </r>
       <r>    0.9839    0.0000 </r>
       <r>    0.9863    0.0000 </r>
       <r>    1.0286    0.0000 </r>
       <r>    1.0306    0.0000 </r>
       <r>    1.1266    0.0000 </r>
      </set>
      <set comment="kpoint 2">
       <r>  -23.0207    1.0000 </r>
       <r>  -22.9923    1.0000 </r>
       <r>  -22.7992    1.0000 </r>
       <r>  -22.7980    1.0000 </r>
       <r>  -22.7736    1.0000 </r>
       <r>  -22.7687    1.0000 </r>
       <r>  -21.4449    1.0000 </r>
       <r>  -21.4192    1.0000 </r>
       <r>  -21.4164    1.0000 </r>
       <r>  -20.9809    1.0000 </r>
       <r>  -20.9100    1.0000 </r>
       <r>  -20.9074    1.0000 </r>
       <r>  -20.0462    1.0000 </r>
       <r>  -19.8075    1.0000 </r>
       <r>  -19.4701    1.0000 </r>
       <r>  -19.4668    1.0000 </r>
       <r>  -19.0312    1.0000 </r>
       <r>  -18.5930    1.0000 </r>
       <r>  -18.5898    1.0000 </r>
       <r>  -18.3573    1.0000 </r>
       <r>  -18.3540    1.0000 </r>
       <r>  -18.3517    1.0000 </r>
       <r>  -18.1577    1.0000 </r>
       <r>  -18.1542    1.0000 </r>
       <r>  -18.1522    1.0000 </r>
       <r>  -18.0416    1.0000 </r>
       <r>  -17.6878    1.0000 </r>
       <r>  -17.6853    1.0000 </r>
       <r>  -17.1393    1.0000 </r>
       <r>  -17.1387    1.0000 </r>
       <r>  -16.7465    1.0000 </r>
       <r>  -16.4380    1.0000 </r>
       <r>  -16.4371    1.0000 </r>
       <r>  -15.9802    1.0000 </r>
       <r>  -15.9584    1.0000 </r>
       <r>  -15.9567    1.0000 </r>
       <r>  -15.1356    1.0000 </r>
       <r>  -15.1323    1.0000 </r>
       <r>  -15.1292    1.0000 </r>
       <r>  -14.7455    1.0000 </r>
       <r>  -14.7435    1.0000 </r>
       <r>  -14.6151    1.0000 </r>
       <r>  -14.4534    1.0000 </r>
       <r>  -14.4507    1.0000 </r>
       <r>  -14.4350    1.0000 </r>
       <r>  -14.1470    1.0000 </r>
       <r>  -14.1462    1.0000 </r>
       <r>  -13.9024    1.0000 </r>
       <r>  -13.8980    1.0000 </r>
       <r>  -13.8811    1.0000 </r>
       <r>  -13.7020    1.0000 </r>
       <r>  -13.7005    1.0000 </r>
       <r>  -13.1894    1.0000 </r>
       <r>  -13.1360    1.0000 </r>
       <r>  -12.7290    1.0000 </r>
       <r>  -12.7260    1.0000 </r>
       <r>  -12.6555    1.0000 </r>
       <r>  -12.1182    1.0000 </r>
       <r>  -11.9162    1.0000 </r>
       <r>  -11.8599    1.0000 </r>
       <r>  -11.8556    1.0000 </r>
       <r>  -11.5969    1.0000 </r>
       <r>  -11.5941    1.0000 </r>
       <r>  -11.5888    1.0000 </r>
       <r>  -11.4301    1.0000 </r>
       <r>  -11.4294    1.0000 </r>
       <r>  -11.2748    1.0000 </r>
       <r>  -11.1790    1.0000 </r>
       <r>  -11.0299    1.0000 </r>
       <r>  -11.0294    1.0000 </r>
       <r>  -11.0275    1.0000 </r>
       <r>  -10.8972    1.0000 </r>
       <r>  -10.8374    1.0000 </r>
       <r>  -10.8347    1.0000 </r>
       <r>  -10.7727    1.0000 </r>
       <r>  -10.7404    1.0000 </r>
       <r>  -10.7391    1.0000 </r>
       <r>  -10.4613    1.0000 </r>
       <r>  -10.4582    1.0000 </r>
       <r>  -10.4569    1.0000 </r>
       <r>  -10.4407    1.0000 </r>
       <r>  -10.4393    1.0000 </r>
       <r>  -10.2724    1.0000 </r>
       <r>  -10.2685    1.0000 </r>
       <r>  -10.1439    1.0000 </r>
       <r>  -10.0904    1.0000 </r>
       <r>  -10.0870    1.0000 </r>
       <r>   -9.9496    1.0000 </r>
       <r>   -9.9366    1.0000 </r>
       <r>   -9.8841    1.0000 </r>
       <r>   -9.8815    1.0000 </r>
       <r>   -9.8070    1.0000 </r>
       <r>   -9.7372    1.0000 </r>
       <r>   -9.7328    1.0000 </r>
       <r>   -9.6853    1.0000 </r>
       <r>   -9.6837    1.0000 </r>
       <r>   -9.4782    1.0000 </r>
       <r>   -9.2943    1.0000 </r>
       <r>   -9.2930    1.0000 </r>
       <r>   -9.2244    1.0000 </r>
       <r>   -9.1244    1.0000 </r>
       <r>   -8.9969    1.0000 </r>
       <r>   -8.9937    1.0000 </r>
       <r>   -8.9717    1.0000 </r>
       <r>   -8.6365    1.0000 </r>
       <r>   -8.6318    1.0000 </r>
       <r>   -8.6287    1.0000 </r>
       <r>   -8.5371    1.0000 </r>
       <r>   -8.4320    1.0000 </r>
       <r>   -8.3591    1.0000 </r>
       <r>   -8.3584    1.0000 </r>
       <r>   -8.3323    1.0000 </r>
       <r>   -8.1844    1.0000 </r>
       <r>   -8.1814    1.0000 </r>
       <r>   -8.0750    1.0000 </r>
       <r>   -8.0742    1.0000 </r>
       <r>   -8.0470    1.0000 </r>
       <r>   -8.0445    1.0000 </r>
       <r>   -8.0428    1.0000 </r>
       <r>   -7.8636    1.0000 </r>
       <r>   -7.8581    1.0000 </r>
       <r>   -7.8564    1.0000 </r>
       <r>   -7.7316    1.0000 </r>
       <r>   -7.7291    1.0000 </r>
       <r>   -7.7035    1.0000 </r>
       <r>   -7.0285    1.0000 </r>
       <r>   -7.0266    1.0000 </r>
       <r>   -6.9435    1.0000 </r>
       <r>   -6.9387    1.0000 </r>
       <r>   -6.6362    1.0000 </r>
       <r>   -6.5849    1.0000 </r>
       <r>   -6.5825    1.0000 </r>
       <r>   -6.1940    1.0000 </r>
       <r>   -6.1834    1.0000 </r>
       <r>   -6.1806    1.0000 </r>
       <r>   -6.1608    1.0000 </r>
       <r>   -6.1489    1.0000 </r>
       <r>   -6.1466    1.0000 </r>
       <r>   -5.4383    1.0000 </r>
       <r>   -5.4117    1.0000 </r>
       <r>   -5.4100    1.0000 </r>
       <r>   -4.8437    1.0000 </r>
       <r>   -4.7982    1.0000 </r>
       <r>   -4.0113    1.0000 </r>
       <r>   -4.0099    1.0000 </r>
       <r>   -3.9690    1.0000 </r>
       <r>   -3.9662    1.0000 </r>
       <r>   -1.7127    0.0000 </r>
       <r>   -1.7043    0.0000 </r>
       <r>   -1.7019    0.0000 </r>
       <r>   -1.1808    0.0000 </r>
       <r>   -1.1777    0.0000 </r>
       <r>   -1.1665    0.0000 </r>
       <r>   -1.0328    0.0000 </r>
       <r>   -1.0309    0.0000 </r>
       <r>   -1.0151    0.0000 </r>
       <r>   -0.4466    0.0000 </r>
       <r>   -0.4136    0.0000 </r>
       <r>   -0.4119    0.0000 </r>
       <r>   -0.3236    0.0000 </r>
       <r>   -0.2393    0.0000 </r>
       <r>   -0.2176    0.0000 </r>
       <r>   -0.2145    0.0000 </r>
       <r>   -0.0736    0.0000 </r>
       <r>   -0.0725    0.0000 </r>
       <r>    0.0531    0.0000 </r>
       <r>    0.0692    0.0000 </r>
       <r>    0.0714    0.0000 </r>
       <r>    0.1208    0.0000 </r>
       <r>    0.1218    0.0000 </r>
       <r>    0.1787    0.0000 </r>
       <r>    0.1832    0.0000 </r>
       <r>    0.2026    0.0000 </r>
       <r>    0.2438    0.0000 </r>
       <r>    0.2454    0.0000 </r>
       <r>    0.3067    0.0000 </r>
       <r>    0.3566    0.0000 </r>
       <r>    0.3587    0.0000 </r>
       <r>    0.4417    0.0000 </r>
       <r>    0.4548    0.0000 </r>
       <r>    0.4811    0.0000 </r>
       <r>    0.5639    0.0000 </r>
       <r>    0.5667    0.0000 </r>
       <r>    0.6191    0.0000 </r>
       <r>    0.6208    0.0000 </r>
       <r>    0.6511    0.0000 </r>
       <r>    0.6780    0.0000 </r>
       <r>    0.6806    0.0000 </r>
       <r>    0.7096    0.0000 </r>
       <r>    0.7656    0.0000 </r>
       <r>    0.7686    0.0000 </r>
       <r>    0.7836    0.0000 </r>
       <r>    0.8054    0.0000 </r>
       <r>    0.8242    0.0000 </r>
       <r>    0.8432    0.0000 </r>
       <r>    0.8470    0.0000 </r>
       <r>    0.8506    0.0000 </r>
       <r>    0.8979    0.0000 </r>
       <r>    0.9088    0.0000 </r>
       <r>    0.9137    0.0000 </r>
       <r>    0.9291    0.0000 </r>
       <r>    0.9341    0.0000 </r>
       <r>    0.9419    0.0000 </r>
       <r>    0.9840    0.0000 </r>
       <r>    0.9868    0.0000 </r>
       <r>    1.0288    0.0000 </r>
       <r>    1.0313    0.0000 </r>
       <r>    1.1253    0.0000 </r>
      </set>
      <set comment="kpoint 3">
       <r>  -23.0207    1.0000 </r>
       <r>  -22.9923    1.0000 </r>
       <r>  -22.7992    1.0000 </r>
       <r>  -22.7980    1.0000 </r>
       <r>  -22.7736    1.0000 </r>
       <r>  -22.7687    1.0000 </r>
       <r>  -21.4448    1.0000 </r>
       <r>  -21.4192    1.0000 </r>
       <r>  -21.4165    1.0000 </r>
       <r>  -20.9806    1.0000 </r>
       <r>  -20.9101    1.0000 </r>
       <r>  -20.9077    1.0000 </r>
       <r>  -20.0455    1.0000 </r>
       <r>  -19.8093    1.0000 </r>
       <r>  -19.4700    1.0000 </r>
       <r>  -19.4645    1.0000 </r>
       <r>  -19.0339    1.0000 </r>
       <r>  -18.5929    1.0000 </r>
       <r>  -18.5870    1.0000 </r>
       <r>  -18.3573    1.0000 </r>
       <r>  -18.3540    1.0000 </r>
       <r>  -18.3517    1.0000 </r>
       <r>  -18.1577    1.0000 </r>
       <r>  -18.1542    1.0000 </r>
       <r>  -18.1522    1.0000 </r>
       <r>  -18.0455    1.0000 </r>
       <r>  -17.6877    1.0000 </r>
       <r>  -17.6814    1.0000 </r>
       <r>  -17.1423    1.0000 </r>
       <r>  -17.1387    1.0000 </r>
       <r>  -16.7441    1.0000 </r>
       <r>  -16.4383    1.0000 </r>
       <r>  -16.4379    1.0000 </r>
       <r>  -15.9801    1.0000 </r>
       <r>  -15.9584    1.0000 </r>
       <r>  -15.9568    1.0000 </r>
       <r>  -15.1356    1.0000 </r>
       <r>  -15.1322    1.0000 </r>
       <r>  -15.1292    1.0000 </r>
       <r>  -14.7456    1.0000 </r>
       <r>  -14.7432    1.0000 </r>
       <r>  -14.6160    1.0000 </r>
       <r>  -14.4532    1.0000 </r>
       <r>  -14.4504    1.0000 </r>
       <r>  -14.4350    1.0000 </r>
       <r>  -14.1472    1.0000 </r>
       <r>  -14.1455    1.0000 </r>
       <r>  -13.9094    1.0000 </r>
       <r>  -13.8979    1.0000 </r>
       <r>  -13.8743    1.0000 </r>
       <r>  -13.7021    1.0000 </r>
       <r>  -13.7008    1.0000 </r>
       <r>  -13.1892    1.0000 </r>
       <r>  -13.1363    1.0000 </r>
       <r>  -12.7290    1.0000 </r>
       <r>  -12.7256    1.0000 </r>
       <r>  -12.6558    1.0000 </r>
       <r>  -12.1179    1.0000 </r>
       <r>  -11.9217    1.0000 </r>
       <r>  -11.8599    1.0000 </r>
       <r>  -11.8495    1.0000 </r>
       <r>  -11.5971    1.0000 </r>
       <r>  -11.5939    1.0000 </r>
       <r>  -11.5886    1.0000 </r>
       <r>  -11.4314    1.0000 </r>
       <r>  -11.4302    1.0000 </r>
       <r>  -11.2737    1.0000 </r>
       <r>  -11.1793    1.0000 </r>
       <r>  -11.0305    1.0000 </r>
       <r>  -11.0294    1.0000 </r>
       <r>  -11.0268    1.0000 </r>
       <r>  -10.8970    1.0000 </r>
       <r>  -10.8377    1.0000 </r>
       <r>  -10.8350    1.0000 </r>
       <r>  -10.7726    1.0000 </r>
       <r>  -10.7400    1.0000 </r>
       <r>  -10.7389    1.0000 </r>
       <r>  -10.4616    1.0000 </r>
       <r>  -10.4586    1.0000 </r>
[...]
       <r>   -20.0667     0.0046    24.0004 </r>
       <r>   -19.9782    16.7187    25.4807 </r>
       <r>   -19.8896    15.5583    27.0861 </r>
       <r>   -19.8011     9.3056    27.9632 </r>
       <r>   -19.7126     0.0000    28.0000 </r>
       <r>   -19.6240     0.0000    28.0000 </r>
       <r>   -19.5355     0.0000    28.0000 </r>
       <r>   -19.4469    26.6398    30.3587 </r>
       <r>   -19.3584     5.0919    30.8860 </r>
       <r>   -19.2699    10.5355    31.8675 </r>
       <r>   -19.1813    11.2709    32.9382 </r>
       <r>   -19.0928     4.6020    33.4107 </r>
       <r>   -19.0042     6.3469    34.0000 </r>
       <r>   -18.9157     0.0000    34.0000 </r>
       <r>   -18.8272     0.0000    34.0000 </r>
       <r>   -18.7386     0.0000    34.0000 </r>
       <r>   -18.6501     0.0000    34.0000 </r>
       <r>   -18.5615    26.9159    36.3831 </r>
       <r>   -18.4730     4.2507    36.8114 </r>
       <r>   -18.3844     8.3088    37.6025 </r>
       <r>   -18.2959    74.2678    44.2780 </r>
       <r>   -18.2074     8.7155    45.1086 </r>
       <r>   -18.1188    70.9721    51.4192 </r>
       <r>   -18.0303     6.2311    51.9904 </r>
       <r>   -17.9417     0.0000    52.0000 </r>
       <r>   -17.8532     0.0000    52.0000 </r>
       <r>   -17.7647     0.0000    52.0000 </r>
       <r>   -17.6761    23.6001    54.0896 </r>
       <r>   -17.5876     4.2654    54.6477 </r>
       <r>   -17.4990     3.4670    55.0072 </r>
       <r>   -17.4105     9.8051    55.9048 </r>
       <r>   -17.3220     8.3223    56.7373 </r>
       <r>   -17.2334     4.0359    57.2926 </r>
       <r>   -17.1449     9.8360    58.2058 </r>
       <r>   -17.0563     0.0000    60.0000 </r>
       <r>   -16.9678     0.0000    60.0000 </r>
       <r>   -16.8793     0.0000    60.0000 </r>
       <r>   -16.7907     0.0000    60.0000 </r>
       <r>   -16.7022     5.9667    60.5283 </r>
       <r>   -16.6136     7.1518    61.2037 </r>
       <r>   -16.5251    12.6529    62.5603 </r>
       <r>   -16.4366    24.6209    64.9943 </r>
       <r>   -16.3480     0.0000    66.0000 </r>
       <r>   -16.2595     0.0000    66.0000 </r>
       <r>   -16.1709     0.0000    66.0000 </r>
       <r>   -16.0824     0.0000    66.0000 </r>
       <r>   -15.9939     0.1596    66.0141 </r>
       <r>   -15.9053    67.6062    72.0000 </r>
       <r>   -15.8168     0.0000    72.0000 </r>
       <r>   -15.7282     0.0000    72.0000 </r>
       <r>   -15.6397     0.0000    72.0000 </r>
       <r>   -15.5512     0.0000    72.0000 </r>
       <r>   -15.4626     0.0000    72.0000 </r>
       <r>   -15.3741     0.0000    72.0000 </r>
       <r>   -15.2855     0.0000    72.0000 </r>
       <r>   -15.1970     0.0000    72.0000 </r>
       <r>   -15.1085    67.6949    77.9937 </r>
       <r>   -15.0199     0.0000    78.0000 </r>
       <r>   -14.9314     0.0000    78.0000 </r>
       <r>   -14.8428     0.0000    78.0000 </r>
       <r>   -14.7543     6.3149    78.5591 </r>
       <r>   -14.6658    34.0465    82.7680 </r>
       <r>   -14.5772    10.4764    84.0000 </r>
       <r>   -14.4887     0.0000    84.0000 </r>
       <r>   -14.4001    67.7657    90.0000 </r>
       <r>   -14.3116     0.0000    90.0000 </r>
       <r>   -14.2231     0.0000    90.0000 </r>
       <r>   -14.1345    27.6344    92.4468 </r>
       <r>   -14.0460    17.2560    94.1677 </r>
       <r>   -13.9574    12.7564    95.4708 </r>
       <r>   -13.8689    29.7400    98.2005 </r>
       <r>   -13.7804    10.0573    99.1610 </r>
       <r>   -13.6918    48.7678   103.8307 </r>
       <r>   -13.6033     0.0000   104.0000 </r>
       <r>   -13.5147     0.0000   104.0000 </r>
       <r>   -13.4262     0.0000   104.0000 </r>
       <r>   -13.3377     0.0000   104.0000 </r>
       <r>   -13.2491     0.0000   104.0000 </r>
       <r>   -13.1606    24.7834   106.1943 </r>
       <r>   -13.0720    11.4616   108.0000 </r>
       <r>   -12.9835     0.0000   108.0000 </r>
       <r>   -12.8950     0.0000   108.0000 </r>
       <r>   -12.8064     0.0000   108.0000 </r>
       <r>   -12.7179    27.0182   110.3922 </r>
       <r>   -12.6293    35.6188   114.0000 </r>
       <r>   -12.5408     0.0000   114.0000 </r>
       <r>   -12.4523     0.0000   114.0000 </r>
       <r>   -12.3637     0.0000   114.0000 </r>
       <r>   -12.2752     0.0000   114.0000 </r>
       <r>   -12.1866     0.0000   114.0000 </r>
       <r>   -12.0981    10.9196   114.9668 </r>
       <r>   -12.0096    19.6991   117.1704 </r>
       <r>   -11.9210     6.7148   117.8628 </r>
       <r>   -11.8325    25.6889   120.2745 </r>
       <r>   -11.7439     4.9157   120.7702 </r>
       <r>   -11.6554    13.3879   121.9899 </r>
       <r>   -11.5669    65.8144   127.8272 </r>
       <r>   -11.4783    15.2704   129.3752 </r>
       <r>   -11.3898    28.9552   132.0000 </r>
       <r>   -11.3012     0.0002   132.0000 </r>
       <r>   -11.2127    22.1027   133.9570 </r>
       <r>   -11.1242    22.3655   136.0000 </r>
       <r>   -11.0356    17.2282   137.5254 </r>
       <r>   -10.9471    20.6185   142.0000 </r>
       <r>   -10.8585    31.8244   144.8177 </r>
       <r>   -10.7700    41.4478   149.0232 </r>
       <r>   -10.6814    45.1771   154.0000 </r>
       <r>   -10.5929     0.0000   154.0000 </r>
       <r>   -10.5044     0.0587   154.0052 </r>
       <r>   -10.4158    96.5879   162.5571 </r>
       <r>   -10.3273    21.1594   164.6458 </r>
       <r>   -10.2387    34.1635   167.9998 </r>
       <r>   -10.1502     0.8508   168.0753 </r>
       <r>   -10.0617    63.7688   173.9999 </r>
       <r>    -9.9731     0.0027   174.0002 </r>
       <r>    -9.8846    57.2004   179.0648 </r>
       <r>    -9.7960    37.2163   183.9812 </r>
       <r>    -9.7075    45.6883   188.0453 </r>
       <r>    -9.6190    44.6616   192.0000 </r>
       <r>    -9.5304     0.0000   192.0000 </r>
       <r>    -9.4419     7.9884   192.7073 </r>
       <r>    -9.3533    20.1345   194.5869 </r>
       <r>    -9.2648    34.2093   197.9999 </r>
       <r>    -9.1763    22.5885   200.0000 </r>
       <r>    -9.0877    22.5886   202.0000 </r>
       <r>    -8.9992    21.0773   203.8662 </r>
       <r>    -8.9106    22.5628   208.0000 </r>
       <r>    -8.8221     0.0000   208.0000 </r>
       <r>    -8.7336     0.0000   208.0000 </r>
       <r>    -8.6450     3.1948   208.2829 </r>
       <r>    -8.5565    58.8583   214.7583 </r>
       <r>    -8.4679    20.3218   217.3082 </r>
       <r>    -8.3794     6.3834   218.0011 </r>
       <r>    -8.2909    67.7517   223.9998 </r>
       <r>    -8.2023     0.0288   224.0026 </r>
       <r>    -8.1138    53.1889   228.7119 </r>
       <r>    -8.0252    84.5149   236.8448 </r>
       <r>    -7.9367     6.4410   238.0000 </r>
       <r>    -7.8482    56.5137   243.0037 </r>
       <r>    -7.7596     0.0007   244.0001 </r>
       <r>    -7.6711    67.7651   250.0000 </r>
       <r>    -7.5825     0.0000   250.0000 </r>
       <r>    -7.4940     0.0000   250.0000 </r>
       <r>    -7.4055     0.0000   250.0000 </r>
       <r>    -7.3169     0.0000   250.0000 </r>
       <r>    -7.2284     0.0000   250.0000 </r>
       <r>    -7.1398     0.0000   250.0000 </r>
       <r>    -7.0513     0.0233   250.0021 </r>
       <r>    -6.9628    45.2397   254.0076 </r>
       <r>    -6.8742    45.0913   258.0000 </r>
       <r>    -6.7857     0.0000   258.0000 </r>
       <r>    -6.6971     0.0000   258.0000 </r>
       <r>    -6.6086    22.9605   260.0329 </r>
       <r>    -6.5201    41.2252   264.0000 </r>
       <r>    -6.4315     0.0000   264.0000 </r>
       <r>    -6.3430     0.0000   264.0000 </r>
       <r>    -6.2544     0.0000   264.0000 </r>
       <r>    -6.1659    71.0935   270.2946 </r>
       <r>    -6.0774    50.2460   276.0000 </r>
       <r>    -5.9888     0.0000   276.0000 </r>
       <r>    -5.9003     0.0000   276.0000 </r>
       <r>    -5.8117     0.0000   276.0000 </r>
       <r>    -5.7232     0.0000   276.0000 </r>
       <r>    -5.6347     0.0000   276.0000 </r>
       <r>    -5.5461     0.0000   276.0000 </r>
       <r>    -5.4576     0.0165   276.0015 </r>
       <r>    -5.3690    67.7493   282.0000 </r>
       <r>    -5.2805     0.0000   282.0000 </r>
       <r>    -5.1920     0.0000   282.0000 </r>
       <r>    -5.1034     0.0000   282.0000 </r>
       <r>    -5.0149     0.0000   282.0000 </r>
       <r>    -4.9263     0.0000   282.0000 </r>
       <r>    -4.8378    17.8862   283.5836 </r>
       <r>    -4.7493    22.5886   286.0000 </r>
       <r>    -4.6607     0.0000   286.0000 </r>
       <r>    -4.5722     0.0000   286.0000 </r>
       <r>    -4.4836     0.0000   286.0000 </r>
       <r>    -4.3951     0.0000   286.0000 </r>
       <r>    -4.3066     0.0000   286.0000 </r>
       <r>    -4.2180     0.0000   286.0000 </r>
       <r>    -4.1295     0.0000   286.0000 </r>
       <r>    -4.0409     0.0004   286.0000 </r>
       <r>    -3.9524    89.5626   293.9299 </r>
       <r>    -3.8639     0.0000   294.0000 </r>
       <r>    -3.7753     0.0000   294.0000 </r>
       <r>    -3.6868     0.0000   294.0000 </r>
       <r>    -3.5982     0.0000   294.0000 </r>
       <r>    -3.5097     0.0000   294.0000 </r>
       <r>    -3.4212     0.0000   294.0000 </r>
       <r>    -3.3326     0.0000   294.0000 </r>
       <r>    -3.2441     0.0000   294.0000 </r>
       <r>    -3.1555     0.0000   294.0000 </r>
       <r>    -3.0670     0.0000   294.0000 </r>
       <r>    -2.9784     0.0000   294.0000 </r>
       <r>    -2.8899     0.0000   294.0000 </r>
       <r>    -2.8014     0.0000   294.0000 </r>
       <r>    -2.7128     0.0000   294.0000 </r>
       <r>    -2.6243     0.0000   294.0000 </r>
       <r>    -2.5357     0.0000   294.0000 </r>
       <r>    -2.4472     0.0000   294.0000 </r>
       <r>    -2.3587     0.0000   294.0000 </r>
       <r>    -2.2701     0.0000   294.0000 </r>
       <r>    -2.1816     0.0000   294.0000 </r>
       <r>    -2.0930     0.0000   294.0000 </r>
       <r>    -2.0045     0.0000   294.0000 </r>
       <r>    -1.9160     0.0000   294.0000 </r>
       <r>    -1.8274     0.0000   294.0000 </r>
       <r>    -1.7389     0.0011   294.0001 </r>
       <r>    -1.6503    67.7647   300.0000 </r>
       <r>    -1.5618     0.0000   300.0000 </r>
       <r>    -1.4733     0.0000   300.0000 </r>
       <r>    -1.3847     0.0000   300.0000 </r>
       <r>    -1.2962     0.0000   300.0000 </r>
       <r>    -1.2076     0.0015   300.0001 </r>
       <r>    -1.1191    67.7643   306.0000 </r>
       <r>    -1.0306    22.2088   307.9664 </r>
       <r>    -0.9420    19.6020   312.0000 </r>
       <r>    -0.8535     0.0000   312.0000 </r>
       <r>    -0.7649     0.0000   312.0000 </r>
       <r>    -0.6764     0.0000   312.0000 </r>
       <r>    -0.5879     0.0000   312.0000 </r>
       <r>    -0.4993     0.0000   312.0000 </r>
       <r>    -0.4108    54.1257   316.7923 </r>
       <r>    -0.3222     8.2094   318.7269 </r>
       <r>    -0.2337    24.1924   322.1480 </r>
       <r>    -0.1452    24.6975   324.9510 </r>
       <r>    -0.0566    38.0547   328.6158 </r>
       <r>     0.0319    19.6096   330.5847 </r>
       <r>     0.1205    82.6793   338.4553 </r>
       <r>     0.2090    68.7620   345.8089 </r>
       <r>     0.2975    33.5875   350.2664 </r>
       <r>     0.3861    31.3934   353.3312 </r>
       <r>     0.4746    63.2053   359.4652 </r>
       <r>     0.5632    40.5605   363.9523 </r>
       <r>     0.6517    78.6009   371.8724 </r>
       <r>     0.7402    91.4819   380.1088 </r>
       <r>     0.8288    87.0388   388.5804 </r>
       <r>     0.9173    99.9161   398.3932 </r>
       <r>     1.0059    84.4834   406.8534 </r>
       <r>     1.0944    81.5198   415.1913 </r>
       <r>     1.1829     4.4233   416.0000 </r>
       <r>     1.2715     0.0000   416.0000 </r>
       <r>     1.3600     0.0000   416.0000 </r>
       <r>     1.4486     0.0000   416.0000 </r>
       <r>     1.5371     0.0000   416.0000 </r>
       <r>     1.6256     0.0000   416.0000 </r>
       <r>     1.7142     0.0000   416.0000 </r>
       <r>     1.8027     0.0000   416.0000 </r>
       <r>     1.8913     0.0000   416.0000 </r>
       <r>     1.9798     0.0000   416.0000 </r>
       <r>     2.0683     0.0000   416.0000 </r>
       <r>     2.1569     0.0000   416.0000 </r>
       <r>     2.2454     0.0000   416.0000 </r>
       <r>     2.3340     0.0000   416.0000 </r>
      </set>
     </set>
    </array>
   </total>
  </dos>
 </calculation>
 <structure name="finalpos" >
  <crystal>
   <varray name="basis" >
    <v>      29.32640261      -0.01564760       0.00000000 </v>
    <v>     -14.67670148      25.41741762       0.00000000 </v>
    <v>       0.00000000       0.00000000      20.00000000 </v>
   </varray>
   <i name="volume">  14903.43534663 </i>
   <varray name="rec_basis" >
    <v>       0.03410947       0.01969573       0.00000000 </v>
    <v>       0.00002100       0.03935523       0.00000000 </v>
    <v>       0.00000000       0.00000000       0.05000000 </v>
   </varray>
  </crystal>
  <varray name="positions" >
   <v>       0.28037989       0.56850080       0.47900484 </v>
   <v>       0.43138584       0.71219340       0.47819997 </v>
   <v>       0.28763273       0.71933371       0.47863524 </v>
   <v>       0.36988569       0.79403925       0.49174806 </v>
   <v>       0.42394360       0.63016617       0.49199966 </v>
   <v>       0.20573488       0.57595167       0.49283824 </v>
   <v>       0.72010133       0.43113767       0.52465469 </v>
   <v>       0.56787564       0.28884564       0.52539204 </v>
   <v>       0.71022974       0.27911305       0.52486018 </v>
   <v>       0.62783088       0.20501436       0.51572193 </v>
   <v>       0.57621191       0.37124462       0.51519845 </v>
   <v>       0.79416105       0.42288101       0.51516584 </v>
   <v>       0.50217026       0.96589950       0.60343569 </v>
   <v>       0.47661195       0.87184966       0.59930660 </v>
   <v>       0.49390451       0.11567390       0.60081095 </v>
   <v>       0.46820341       0.02164728       0.59499909 </v>
   <v>       0.46806611       0.79958084       0.45010181 </v>
   <v>       0.45685138       0.79483920       0.53775821 </v>
   <v>       0.46347692       0.49730360       0.60331977 </v>
   <v>       0.39506491       0.52305197       0.59976058 </v>
   <v>       0.62133494       0.50488847       0.59998261 </v>
   <v>       0.55316767       0.53088175       0.59482048 </v>
   <v>       0.33101041       0.53183520       0.45131100 </v>
   <v>       0.33807959       0.54347092       0.53883277 </v>
   <v>       0.03308397       0.53597285       0.60300701 </v>
   <v>       0.12732882       0.60443423       0.59962835 </v>
   <v>       0.88300114       0.37789417       0.59905345 </v>
   <v>       0.97720047       0.44618321       0.59399894 </v>
   <v>       0.20038396       0.66863783       0.45104833 </v>
   <v>       0.20477067       0.66186745       0.53869657 </v>
   <v>       0.54747784       0.04905106       0.40524566 </v>
   <v>       0.57058726       0.14234348       0.40969808 </v>
   <v>       0.45475753       0.87075377       0.38651953 </v>
   <v>       0.47867493       0.96438520       0.39048606 </v>
   <v>       0.54400449       0.20707245       0.46156969 </v>
   <v>       0.52825495       0.19976214       0.54813584 </v>
   <v>       0.50105741       0.45264800       0.40451477 </v>
   <v>       0.57097062       0.42909494       0.40846443 </v>
   <v>       0.41590818       0.54585276       0.38710660 </v>
   <v>       0.48553199       0.52173941       0.39050277 </v>
   <v>       0.66176076       0.45431174       0.45997836 </v>
   <v>       0.67112189       0.47087473       0.54626839 </v>
   <v>       0.95081381       0.49884619       0.40429098 </v>
   <v>       0.85733408       0.42876716       0.40802994 </v>
   <v>       0.12942955       0.58417862       0.38687813 </v>
   <v>       0.03562777       0.51451479       0.39007069 </v>
   <v>       0.79176859       0.33779434       0.45910671 </v>
   <v>       0.79914664       0.32807436       0.54522016 </v>
   <v>       0.39044098       0.77657674       0.47640377 </v>
   <v>       0.38586552       0.60951255       0.47679530 </v>
   <v>       0.22312156       0.61389446       0.47721746 </v>
   <v>       0.60722603       0.22325351       0.52724013 </v>
   <v>       0.61508688       0.39187645       0.52680506 </v>
   <v>       0.77598341       0.38402501       0.52663676 </v>
   <v>       0.36269163       0.72191621       0.47825827 </v>
   <v>       0.30704510       0.69592504       0.47871826 </v>
   <v>       0.27784042       0.64093281       0.47869013 </v>
   <v>       0.30383582       0.61133248       0.47895941 </v>
   <v>       0.35886906       0.63716914       0.47849145 </v>
   <v>       0.38852164       0.69276295       0.47849404 </v>
   <v>       0.63578708       0.27783458       0.52502521 </v>
   <v>       0.69136618       0.30304144       0.52445658 </v>
   <v>       0.72132967       0.35801745       0.52471771 </v>
   <v>       0.69613340       0.38834561       0.52440642 </v>
   <v>       0.64109766       0.36327543       0.52487972 </v>
   <v>       0.61070663       0.30773277       0.52476808 </v>
   <v>       0.46399815       0.86473130       0.49264538 </v>
   <v>       0.49205410       0.97226163       0.49735950 </v>
   <v>       0.49107150       0.94509918       0.55571457 </v>
   <v>       0.47709897       0.89217383       0.55332225 </v>
   <v>       0.50555030       0.10102609       0.55767159 </v>
   <v>       0.49158045       0.04814665       0.55470562 </v>
   <v>       0.44665530       0.80697465       0.49017245 </v>
   <v>       0.40055175       0.53607057       0.49318828 </v>
   <v>       0.47993027       0.50778384       0.49725848 </v>
   <v>       0.45377692       0.50859901       0.55574504 </v>
   <v>       0.41487180       0.52268116       0.55367460 </v>
   <v>       0.59498212       0.49349759       0.55690649 </v>
   <v>       0.55619301       0.50766653       0.55427146 </v>
   <v>       0.36011479       0.55342841       0.49102647 </v>
   <v>       0.13491801       0.59926029       0.49302614 </v>
   <v>       0.02721492       0.51979236       0.49687060 </v>
   <v>       0.05414108       0.54580431       0.55545378 </v>
   <v>       0.10715888       0.58475182       0.55348339 </v>
   <v>       0.89791077       0.40435035       0.55608836 </v>
   <v>       0.95088639       0.44322352       0.55353662 </v>
   <v>       0.19275804       0.63968481       0.49098988 </v>
   <v>       0.46529294       0.89174141       0.43417047 </v>
   <v>       0.47901809       0.94451706       0.43644475 </v>
   <v>       0.50630145       0.02823811       0.50000110 </v>
   <v>       0.53490028       0.06320020       0.44793323 </v>
   <v>       0.54835648       0.11591325       0.45075100 </v>
   <v>       0.53414092       0.13569991       0.50583966 </v>
   <v>       0.55160715       0.19343647       0.50986226 </v>
   <v>       0.42629420       0.53501575       0.43458820 </v>
   <v>       0.46529608       0.52118507       0.43654733 </v>
   <v>       0.52156036       0.49334639       0.49957450 </v>
   <v>       0.52778660       0.46491725       0.44720215 </v>
   <v>       0.56690150       0.45121902       0.44972498 </v>
   <v>       0.60090008       0.46503944       0.50479151 </v>
   <v>       0.64099581       0.44731242       0.50854802 </v>
   <v>       0.10816167       0.57366837       0.43433794 </v>
   <v>       0.05529905       0.53462532       0.43618509 </v>
   <v>       0.97114087       0.47806069       0.49905264 </v>
   <v>       0.93640124       0.47193894       0.44679157 </v>
   <v>       0.88357148       0.43272370       0.44921844 </v>
   <v>       0.86344553       0.39851106       0.50407031 </v>
   <v>       0.80559241       0.35832510       0.50780591 </v>
  </varray>
 </structure>
</modeling>
