<?xml version="1.0" encoding="ISO-8859-1"?>
<modeling>
 <generator>
  <i name="program" type="string">vasp </i>
  <i name="version" type="string">5.4.4.18Apr17-6-g9f103f2a35  </i>
  <i name="subversion" type="string">(build Jun 07 2020 16:50:00) complex            parallel </i>
  <i name="platform" type="string">LinuxIFC </i>
  <i name="date" type="string">2023 02 14 </i>
  <i name="time" type="string">17:36:34 </i>
 </generator>
 <incar>
  <i type="string" name="SYSTEM">Simulation for cell shape cell volume r</i>
  <i type="int" name="ISTART">     1</i>
  <i type="string" name="PREC">high</i>
  <i type="string" name="ALGO">48</i>
  <i type="int" name="ICHARG">    11</i>
  <i type="int" name="NELM">   200</i>
  <i type="int" name="IBRION">    -1</i>
  <i name="EDIFF">      0.00001000</i>
  <i name="EDIFFG">     -0.01000000</i>
  <i type="int" name="NSW">     0</i>
  <i type="int" name="ISIF">     2</i>
  <i name="ENCUT">    500.00000000</i>
  <i name="POTIM">      0.30000000</i>
  <i type="string" name="LREAL">A</i>
  <i type="int" name="ISMEAR">     0</i>
  <i name="SIGMA">      0.01000000</i>
  <i type="int" name="NWRITE">     0</i>
  <i type="logical" name="LWAVE"> F  </i>
  <i type="logical" name="LCHARG"> F  </i>
  <v type="int" name="KPOINT_BSE">    -1     0     0     0</v>
  <i type="int" name="NELM">   200</i>
  <i type="string" name="GGA">PE</i>
 </incar>
 <structure name="primitive_cell" >
  <crystal>
   <varray name="basis" >
    <v>      22.38082777      -0.03564781       0.00000000 </v>
    <v>     -11.22127928      19.34280993       0.00000000 </v>
    <v>       0.00000000       0.00000000      20.00000000 </v>
   </varray>
   <i name="volume">   8650.16167364 </i>
   <varray name="rec_basis" >
    <v>       0.04472242       0.02594467       0.00000000 </v>
    <v>       0.00008242       0.05174661       0.00000000 </v>
    <v>       0.00000000       0.00000000       0.05000000 </v>
   </varray>
  </crystal>
  <varray name="positions" >
   <v>       0.32895700      -0.17659658       0.46352694 </v>
   <v>       0.37403316      -0.19078181       0.47690924 </v>
   <v>       0.44263499      -0.14221880       0.48939382 </v>
   <v>       0.25080443      -0.29645990       0.47801492 </v>
   <v>       0.35752822      -0.26486375       0.48097862 </v>
   <v>       0.28714815      -0.31541965       0.48108331 </v>
   <v>       0.44312501      -0.04098154       0.45584952 </v>
   <v>       0.47587104      -0.07028541       0.48519717 </v>
   <v>       0.47400115      -0.15881164      -0.49193943 </v>
   <v>       0.34366995      -0.01528739       0.43843430 </v>
   <v>       0.40697361      -0.28545378       0.48119101 </v>
   <v>       0.37898090      -0.01319772       0.35790033 </v>
   <v>       0.46246845      -0.24892277       0.47831405 </v>
   <v>       0.47732685       0.02725687       0.45376248 </v>
   <v>       0.37862959       0.01877370       0.39936262 </v>
   <v>       0.26630705      -0.38568993       0.48185427 </v>
   <v>       0.16133208      -0.37455429      -0.49045549 </v>
   <v>      -0.46020965      -0.03778675      -0.48913086 </v>
   <v>       0.44793198       0.06124305       0.42574489 </v>
   <v>       0.38690376      -0.35583138       0.48188937 </v>
   <v>       0.14414447      -0.42295637       0.49141074 </v>
   <v>       0.31662000      -0.40551696       0.48198981 </v>
   <v>       0.36345530       0.05566002       0.38208745 </v>
   <v>       0.19209581      -0.44344551       0.47877993 </v>
   <v>      -0.45500909       0.06846637       0.47995889 </v>
   <v>      -0.42573431       0.03170113      -0.49217961 </v>
   <v>       0.29745048      -0.46104401       0.47966261 </v>
   <v>       0.07226278      -0.46114821       0.48681548 </v>
   <v>       0.44447394      -0.37216601       0.47868687 </v>
   <v>       0.04043256      -0.42890364      -0.48826089 </v>
   <v>      -0.37355243       0.05915900      -0.47184963 </v>
   <v>       0.17727061       0.49684925       0.46600178 </v>
   <v>      -0.49590963      -0.32707480       0.46554046 </v>
   <v>      -0.42532365       0.14020082       0.47654423 </v>
   <v>      -0.45668889       0.15610375       0.45636169 </v>
   <v>       0.04238713       0.47644909       0.45770767 </v>
   <v>       0.42399822      -0.44072690       0.49157621 </v>
   <v>       0.37578585      -0.47210896      -0.48990729 </v>
   <v>      -0.02895813      -0.46340041      -0.49193369 </v>
   <v>      -0.36042983       0.18997414       0.49679632 </v>
   <v>      -0.05589390      -0.43798957      -0.47234283 </v>
   <v>      -0.31590463       0.17693942      -0.48327257 </v>
   <v>      -0.45387321       0.24079319       0.49688774 </v>
   <v>      -0.02575330       0.44291167       0.45507549 </v>
   <v>      -0.06628363       0.47024673       0.48044529 </v>
   <v>       0.46229803      -0.47408475       0.48698756 </v>
   <v>      -0.34693521       0.26280278       0.49305910 </v>
   <v>      -0.39909695       0.27978290       0.49336526 </v>
   <v>      -0.47558483      -0.44119872       0.45744124 </v>
   <v>       0.01404912       0.38351786       0.36037349 </v>
   <v>       0.01472407       0.35014115       0.44122865 </v>
   <v>      -0.06032398       0.37922950       0.42725218 </v>
   <v>       0.43051240       0.46182106      -0.48761945 </v>
   <v>      -0.01860286       0.35142526       0.40170728 </v>
   <v>      -0.35011655      -0.34136072       0.43881513 </v>
   <v>      -0.13800211       0.42856301       0.47669201 </v>
   <v>      -0.38414325      -0.37748172       0.35865062 </v>
   <v>      -0.49989571       0.31743331      -0.48403581 </v>
   <v>      -0.17352563      -0.49717947      -0.48544527 </v>
   <v>      -0.27758127       0.31581204       0.49313996 </v>
   <v>      -0.23881238       0.29997351       0.49654480 </v>
   <v>      -0.38253308       0.34914418       0.49291334 </v>
   <v>      -0.35141601      -0.37660857       0.39994398 </v>
   <v>      -0.44171815      -0.47528139       0.45500757 </v>
   <v>      -0.18725819       0.44457996       0.49578979 </v>
   <v>      -0.15432895       0.38090895       0.45694108 </v>
   <v>      -0.44195297       0.36236089       0.49664104 </v>
   <v>      -0.05595275       0.29927303       0.38442766 </v>
   <v>       0.46533040       0.42740436      -0.49109124 </v>
   <v>      -0.37827501      -0.44574238       0.42675042 </v>
   <v>      -0.29938494      -0.36135517       0.38229605 </v>
   <v>      -0.46848005       0.45694781       0.48098474 </v>
   <v>      -0.26031286       0.38519030       0.49254789 </v>
   <v>      -0.31311455       0.40153600       0.49286782 </v>
   <v>       0.44030469       0.37503637      -0.47111882 </v>
   <v>      -0.42647840       0.42751251       0.47721277 </v>
   <v>      -0.29708080       0.45635089       0.49595031 </v>
   <v>      -0.37902847       0.45921898       0.45718557 </v>
  </varray>
 </structure>
 <varray name="primitive_index" >
  <v type="int" >        1 </v>
  <v type="int" >       34 </v>
  <v type="int" >       50 </v>
  <v type="int" >       56 </v>
  <v type="int" >       33 </v>
  <v type="int" >       14 </v>
  <v type="int" >       43 </v>
  <v type="int" >       38 </v>
  <v type="int" >       74 </v>
  <v type="int" >       61 </v>
  <v type="int" >       13 </v>
  <v type="int" >       63 </v>
  <v type="int" >       55 </v>
  <v type="int" >       24 </v>
  <v type="int" >       26 </v>
  <v type="int" >       10 </v>
  <v type="int" >       76 </v>
  <v type="int" >       49 </v>
  <v type="int" >        7 </v>
  <v type="int" >       12 </v>
  <v type="int" >       52 </v>
  <v type="int" >       11 </v>
  <v type="int" >       62 </v>
  <v type="int" >       15 </v>
  <v type="int" >       25 </v>
  <v type="int" >       37 </v>
  <v type="int" >       57 </v>
  <v type="int" >       40 </v>
  <v type="int" >       16 </v>
  <v type="int" >       51 </v>
  <v type="int" >       73 </v>
  <v type="int" >        2 </v>
  <v type="int" >        3 </v>
  <v type="int" >       44 </v>
  <v type="int" >       64 </v>
  <v type="int" >       45 </v>
  <v type="int" >       54 </v>
  <v type="int" >       78 </v>
  <v type="int" >       39 </v>
  <v type="int" >       36 </v>
  <v type="int" >       75 </v>
  <v type="int" >        4 </v>
  <v type="int" >       58 </v>
  <v type="int" >       27 </v>
  <v type="int" >       28 </v>
  <v type="int" >       42 </v>
  <v type="int" >       35 </v>
  <v type="int" >       20 </v>
  <v type="int" >       47 </v>
  <v type="int" >       67 </v>
  <v type="int" >       65 </v>
  <v type="int" >        8 </v>
  <v type="int" >       53 </v>
  <v type="int" >       29 </v>
  <v type="int" >       69 </v>
  <v type="int" >       46 </v>
  <v type="int" >       71 </v>
  <v type="int" >        6 </v>
  <v type="int" >        5 </v>
  <v type="int" >       21 </v>
  <v type="int" >       59 </v>
  <v type="int" >       19 </v>
  <v type="int" >       32 </v>
  <v type="int" >       30 </v>
  <v type="int" >       22 </v>
  <v type="int" >       68 </v>
  <v type="int" >       23 </v>
  <v type="int" >       66 </v>
  <v type="int" >       41 </v>
  <v type="int" >        9 </v>
  <v type="int" >       70 </v>
  <v type="int" >       31 </v>
  <v type="int" >       17 </v>
  <v type="int" >       18 </v>
  <v type="int" >       77 </v>
  <v type="int" >       48 </v>
  <v type="int" >       60 </v>
  <v type="int" >       72 </v>
 </varray>
 <kpoints>
  <generation param="listgenerated">
   <i name="divisions" type="int">      20 </i>
   <v>       0.00000000       0.00000000       0.00000000 </v>
   <v>       0.50000000      -0.50000000       0.00000000 </v>
   <v>       0.66765448      -0.33291183       0.00000000 </v>
   <v>       0.50000000       0.00000000       0.00000000 </v>
   <v>       0.33234552       0.33291183       0.00000000 </v>
   <v>       0.00000000       0.50000000       0.00000000 </v>
   <v>       0.00000000       0.00000000       0.00000000 </v>
  </generation>
  <varray name="kpointlist" >
   <v>       0.00000000       0.00000000       0.00000000 </v>
   <v>       0.02631579      -0.02631579       0.00000000 </v>
   <v>       0.05263158      -0.05263158       0.00000000 </v>
   <v>       0.07894737      -0.07894737       0.00000000 </v>
   <v>       0.10526316      -0.10526316       0.00000000 </v>
   <v>       0.13157895      -0.13157895       0.00000000 </v>
   <v>       0.15789474      -0.15789474       0.00000000 </v>
   <v>       0.18421053      -0.18421053       0.00000000 </v>
   <v>       0.21052632      -0.21052632       0.00000000 </v>
   <v>       0.23684211      -0.23684211       0.00000000 </v>
   <v>       0.26315789      -0.26315789       0.00000000 </v>
   <v>       0.28947368      -0.28947368       0.00000000 </v>
   <v>       0.31578947      -0.31578947       0.00000000 </v>
   <v>       0.34210526      -0.34210526       0.00000000 </v>
   <v>       0.36842105      -0.36842105       0.00000000 </v>
   <v>       0.39473684      -0.39473684       0.00000000 </v>
   <v>       0.42105263      -0.42105263       0.00000000 </v>
   <v>       0.44736842      -0.44736842       0.00000000 </v>
   <v>       0.47368421      -0.47368421       0.00000000 </v>
   <v>       0.50000000      -0.50000000       0.00000000 </v>
   <v>       0.50000000      -0.50000000       0.00000000 </v>
   <v>       0.50882392      -0.49120589       0.00000000 </v>
   <v>       0.51764784      -0.48241177       0.00000000 </v>
   <v>       0.52647176      -0.47361766       0.00000000 </v>
   <v>       0.53529568      -0.46482354       0.00000000 </v>
   <v>       0.54411960      -0.45602943       0.00000000 </v>
   <v>       0.55294352      -0.44723531       0.00000000 </v>
   <v>       0.56176744      -0.43844120       0.00000000 </v>
   <v>       0.57059136      -0.42964708       0.00000000 </v>
   <v>       0.57941528      -0.42085297       0.00000000 </v>
   <v>       0.58823920      -0.41205886       0.00000000 </v>
   <v>       0.59706312      -0.40326474       0.00000000 </v>
   <v>       0.60588704      -0.39447063       0.00000000 </v>
   <v>       0.61471096      -0.38567651       0.00000000 </v>
   <v>       0.62353488      -0.37688240       0.00000000 </v>
   <v>       0.63235880      -0.36808828       0.00000000 </v>
   <v>       0.64118272      -0.35929417       0.00000000 </v>
   <v>       0.65000664      -0.35050006       0.00000000 </v>
   <v>       0.65883056      -0.34170594       0.00000000 </v>
   <v>       0.66765448      -0.33291183       0.00000000 </v>
   <v>       0.66765448      -0.33291183       0.00000000 </v>
   <v>       0.65883056      -0.31539015       0.00000000 </v>
   <v>       0.65000664      -0.29786848       0.00000000 </v>
   <v>       0.64118272      -0.28034680       0.00000000 </v>
   <v>       0.63235880      -0.26282513       0.00000000 </v>
   <v>       0.62353488      -0.24530345       0.00000000 </v>
   <v>       0.61471096      -0.22778178       0.00000000 </v>
   <v>       0.60588704      -0.21026010       0.00000000 </v>
   <v>       0.59706312      -0.19273843       0.00000000 </v>
   <v>       0.58823920      -0.17521675       0.00000000 </v>
   <v>       0.57941528      -0.15769508       0.00000000 </v>
   <v>       0.57059136      -0.14017340       0.00000000 </v>
   <v>       0.56176744      -0.12265173       0.00000000 </v>
   <v>       0.55294352      -0.10513005       0.00000000 </v>
   <v>       0.54411960      -0.08760838       0.00000000 </v>
   <v>       0.53529568      -0.07008670       0.00000000 </v>
   <v>       0.52647176      -0.05256503       0.00000000 </v>
   <v>       0.51764784      -0.03504335       0.00000000 </v>
   <v>       0.50882392      -0.01752168       0.00000000 </v>
   <v>       0.50000000       0.00000000       0.00000000 </v>
   <v>       0.50000000       0.00000000       0.00000000 </v>
   <v>       0.49117608       0.01752168       0.00000000 </v>
   <v>       0.48235216       0.03504335       0.00000000 </v>
   <v>       0.47352824       0.05256503       0.00000000 </v>
   <v>       0.46470432       0.07008670       0.00000000 </v>
   <v>       0.45588040       0.08760838       0.00000000 </v>
   <v>       0.44705648       0.10513005       0.00000000 </v>
   <v>       0.43823256       0.12265173       0.00000000 </v>
   <v>       0.42940864       0.14017340       0.00000000 </v>
   <v>       0.42058472       0.15769508       0.00000000 </v>
   <v>       0.41176080       0.17521675       0.00000000 </v>
   <v>       0.40293688       0.19273843       0.00000000 </v>
   <v>       0.39411296       0.21026010       0.00000000 </v>
   <v>       0.38528904       0.22778178       0.00000000 </v>
   <v>       0.37646512       0.24530345       0.00000000 </v>
   <v>       0.36764120       0.26282513       0.00000000 </v>
   <v>       0.35881728       0.28034680       0.00000000 </v>
   <v>       0.34999336       0.29786848       0.00000000 </v>
   <v>       0.34116944       0.31539015       0.00000000 </v>
   <v>       0.33234552       0.33291183       0.00000000 </v>
   <v>       0.33234552       0.33291183       0.00000000 </v>
   <v>       0.31485365       0.34170594       0.00000000 </v>
   <v>       0.29736178       0.35050006       0.00000000 </v>
   <v>       0.27986991       0.35929417       0.00000000 </v>
   <v>       0.26237804       0.36808828       0.00000000 </v>
   <v>       0.24488617       0.37688240       0.00000000 </v>
   <v>       0.22739430       0.38567651       0.00000000 </v>
   <v>       0.20990243       0.39447063       0.00000000 </v>
   <v>       0.19241056       0.40326474       0.00000000 </v>
   <v>       0.17491870       0.41205886       0.00000000 </v>
   <v>       0.15742683       0.42085297       0.00000000 </v>
   <v>       0.13993496       0.42964708       0.00000000 </v>
   <v>       0.12244309       0.43844120       0.00000000 </v>
   <v>       0.10495122       0.44723531       0.00000000 </v>
   <v>       0.08745935       0.45602943       0.00000000 </v>
   <v>       0.06996748       0.46482354       0.00000000 </v>
   <v>       0.05247561       0.47361766       0.00000000 </v>
   <v>       0.03498374       0.48241177       0.00000000 </v>
   <v>       0.01749187       0.49120589       0.00000000 </v>
   <v>       0.00000000       0.50000000       0.00000000 </v>
   <v>       0.00000000       0.50000000       0.00000000 </v>
   <v>       0.00000000       0.47368421       0.00000000 </v>
   <v>       0.00000000       0.44736842       0.00000000 </v>
   <v>       0.00000000       0.42105263       0.00000000 </v>
   <v>       0.00000000       0.39473684       0.00000000 </v>
   <v>       0.00000000       0.36842105       0.00000000 </v>
   <v>       0.00000000       0.34210526       0.00000000 </v>
   <v>       0.00000000       0.31578947       0.00000000 </v>
   <v>       0.00000000       0.28947368       0.00000000 </v>
   <v>       0.00000000       0.26315789       0.00000000 </v>
   <v>       0.00000000       0.23684211       0.00000000 </v>
   <v>       0.00000000       0.21052632       0.00000000 </v>
   <v>       0.00000000       0.18421053       0.00000000 </v>
   <v>       0.00000000       0.15789474       0.00000000 </v>
   <v>       0.00000000       0.13157895       0.00000000 </v>
   <v>       0.00000000       0.10526316       0.00000000 </v>
   <v>       0.00000000       0.07894737       0.00000000 </v>
   <v>       0.00000000       0.05263158       0.00000000 </v>
   <v>       0.00000000       0.02631579       0.00000000 </v>
   <v>       0.00000000       0.00000000       0.00000000 </v>
  </varray>
  <varray name="weights" >
   <v>       0.00833333 </v>
   <v>       0.00833333 </v>
   <v>       0.00833333 </v>
   <v>       0.00833333 </v>
   <v>       0.00833333 </v>
   <v>       0.00833333 </v>
   <v>       0.00833333 </v>
   <v>       0.00833333 </v>
   <v>       0.00833333 </v>
   <v>       0.00833333 </v>
   <v>       0.00833333 </v>
   <v>       0.00833333 </v>
   <v>       0.00833333 </v>
   <v>       0.00833333 </v>
   <v>       0.00833333 </v>
   <v>       0.00833333 </v>
   <v>       0.00833333 </v>
   <v>       0.00833333 </v>
   <v>       0.00833333 </v>
   <v>       0.00833333 </v>
   <v>       0.00833333 </v>
   <v>       0.00833333 </v>
   <v>       0.00833333 </v>
   <v>       0.00833333 </v>
   <v>       0.00833333 </v>
   <v>       0.00833333 </v>
   <v>       0.00833333 </v>
   <v>       0.00833333 </v>
   <v>       0.00833333 </v>
   <v>       0.00833333 </v>
   <v>       0.00833333 </v>
   <v>       0.00833333 </v>
   <v>       0.00833333 </v>
   <v>       0.00833333 </v>
   <v>       0.00833333 </v>
   <v>       0.00833333 </v>
   <v>       0.00833333 </v>
   <v>       0.00833333 </v>
   <v>       0.00833333 </v>
   <v>       0.00833333 </v>
   <v>       0.00833333 </v>
   <v>       0.00833333 </v>
   <v>       0.00833333 </v>
   <v>       0.00833333 </v>
   <v>       0.00833333 </v>
   <v>       0.00833333 </v>
   <v>       0.00833333 </v>
   <v>       0.00833333 </v>
   <v>       0.00833333 </v>
   <v>       0.00833333 </v>
   <v>       0.00833333 </v>
   <v>       0.00833333 </v>
   <v>       0.00833333 </v>
   <v>       0.00833333 </v>
   <v>       0.00833333 </v>
   <v>       0.00833333 </v>
   <v>       0.00833333 </v>
   <v>       0.00833333 </v>
   <v>       0.00833333 </v>
   <v>       0.00833333 </v>
   <v>       0.00833333 </v>
   <v>       0.00833333 </v>
   <v>       0.00833333 </v>
   <v>       0.00833333 </v>
   <v>       0.00833333 </v>
   <v>       0.00833333 </v>
   <v>       0.00833333 </v>
   <v>       0.00833333 </v>
   <v>       0.00833333 </v>
   <v>       0.00833333 </v>
   <v>       0.00833333 </v>
   <v>       0.00833333 </v>
   <v>       0.00833333 </v>
   <v>       0.00833333 </v>
   <v>       0.00833333 </v>
   <v>       0.00833333 </v>
   <v>       0.00833333 </v>
   <v>       0.00833333 </v>
   <v>       0.00833333 </v>
   <v>       0.00833333 </v>
   <v>       0.00833333 </v>
   <v>       0.00833333 </v>
   <v>       0.00833333 </v>
   <v>       0.00833333 </v>
   <v>       0.00833333 </v>
   <v>       0.00833333 </v>
   <v>       0.00833333 </v>
   <v>       0.00833333 </v>
   <v>       0.00833333 </v>
   <v>       0.00833333 </v>
   <v>       0.00833333 </v>
   <v>       0.00833333 </v>
   <v>       0.00833333 </v>
   <v>       0.00833333 </v>
   <v>       0.00833333 </v>
   <v>       0.00833333 </v>
   <v>       0.00833333 </v>
   <v>       0.00833333 </v>
   <v>       0.00833333 </v>
   <v>       0.00833333 </v>
   <v>       0.00833333 </v>
   <v>       0.00833333 </v>
   <v>       0.00833333 </v>
   <v>       0.00833333 </v>
   <v>       0.00833333 </v>
   <v>       0.00833333 </v>
   <v>       0.00833333 </v>
   <v>       0.00833333 </v>
   <v>       0.00833333 </v>
   <v>       0.00833333 </v>
   <v>       0.00833333 </v>
   <v>       0.00833333 </v>
   <v>       0.00833333 </v>
   <v>       0.00833333 </v>
   <v>       0.00833333 </v>
   <v>       0.00833333 </v>
   <v>       0.00833333 </v>
   <v>       0.00833333 </v>
   <v>       0.00833333 </v>
   <v>       0.00833333 </v>
  </varray>
 </kpoints>
 <parameters>
  <separator name="general" >
   <i type="string" name="SYSTEM">Simulation for cell shape cell volume r</i>
   <i type="logical" name="LCOMPAT"> F  </i>
  </separator>
  <separator name="electronic" >
   <i type="string" name="PREC">high</i>
   <i name="ENMAX">    500.00000000</i>
   <i name="ENAUG">    644.87300000</i>
   <i name="EDIFF">      0.00001000</i>
   <i type="int" name="IALGO">    38</i>
   <i type="int" name="IWAVPR">    10</i>
   <i type="int" name="NBANDS">   176</i>
   <i name="NELECT">    270.00000000</i>
   <i type="int" name="TURBO">     0</i>
   <i type="int" name="IRESTART">     0</i>
   <i type="int" name="NREBOOT">     0</i>
   <i type="int" name="NMIN">     0</i>
   <i name="EREF">      0.00000000</i>
   <separator name="electronic smearing" >
    <i type="int" name="ISMEAR">     0</i>
    <i name="SIGMA">      0.01000000</i>
    <i name="KSPACING">      0.50000000</i>
    <i type="logical" name="KGAMMA"> T  </i>
   </separator>
   <separator name="electronic projectors" >
    <i type="logical" name="LREAL"> T  </i>
    <v name="ROPT">     -0.00040000     -0.00040000     -0.00040000     -0.00040000</v>
    <i type="int" name="LMAXPAW">  -100</i>
    <i type="int" name="LMAXMIX">     2</i>
    <i type="logical" name="NLSPLINE"> F  </i>
   </separator>
   <separator name="electronic startup" >
    <i type="int" name="ISTART">     1</i>
    <i type="int" name="ICHARG">    11</i>
    <i type="int" name="INIWAV">     1</i>
   </separator>
   <separator name="electronic spin" >
    <i type="int" name="ISPIN">     1</i>
    <i type="logical" name="LNONCOLLINEAR"> F  </i>
    <v name="MAGMOM">      1.00000000      1.00000000      1.00000000      1.00000000      1.00000000      1.00000000      1.00000000      1.00000000      1.00000000      1.00000000      1.00000000      1.00000000      1.00000000      1.00000000      1.00000000      1.00000000      1.00000000      1.00000000      1.00000000      1.00000000
      1.00000000      1.00000000      1.00000000      1.00000000      1.00000000      1.00000000      1.00000000      1.00000000      1.00000000      1.00000000      1.00000000      1.00000000      1.00000000      1.00000000      1.00000000      1.00000000      1.00000000      1.00000000      1.00000000      1.00000000
      1.00000000      1.00000000      1.00000000      1.00000000      1.00000000      1.00000000      1.00000000      1.00000000      1.00000000      1.00000000      1.00000000      1.00000000      1.00000000      1.00000000      1.00000000      1.00000000      1.00000000      1.00000000      1.00000000      1.00000000
      1.00000000      1.00000000      1.00000000      1.00000000      1.00000000      1.00000000      1.00000000      1.00000000      1.00000000      1.00000000      1.00000000      1.00000000      1.00000000      1.00000000      1.00000000      1.00000000      1.00000000      1.00000000</v>
    <i name="NUPDOWN">     -1.00000000</i>
    <i type="logical" name="LSORBIT"> F  </i>
    <v name="SAXIS">      0.00000000      0.00000000      1.00000000</v>
    <i type="logical" name="LSPIRAL"> F  </i>
    <v name="QSPIRAL">      0.00000000      0.00000000      0.00000000</v>
    <i type="logical" name="LZEROZ"> F  </i>
   </separator>
   <separator name="electronic exchange-correlation" >
    <i type="logical" name="LASPH"> F  </i>
    <i type="logical" name="LMETAGGA"> F  </i>
   </separator>
   <separator name="electronic convergence" >
    <i type="int" name="NELM">   200</i>
    <i type="int" name="NELMDL">     0</i>
    <i type="int" name="NELMIN">     2</i>
    <i name="ENINI">    500.00000000</i>
    <separator name="electronic convergence detail" >
     <i type="logical" name="LDIAG"> T  </i>
     <i type="logical" name="LSUBROT"> F  </i>
     <i name="WEIMIN">      0.00000000</i>
     <i name="EBREAK">      0.00000001</i>
     <i name="DEPER">      0.30000000</i>
     <i type="int" name="NRMM">     4</i>
     <i name="TIME">      0.40000000</i>
    </separator>
   </separator>
   <separator name="electronic mixer" >
    <i name="AMIX">      0.40000000</i>
    <i name="BMIX">      1.00000000</i>
    <i name="AMIN">      0.10000000</i>
    <i name="AMIX_MAG">      1.60000000</i>
    <i name="BMIX_MAG">      1.00000000</i>
    <separator name="electronic mixer details" >
     <i type="int" name="IMIX">     4</i>
     <i type="logical" name="MIXFIRST"> F  </i>
     <i type="int" name="MAXMIX">   -45</i>
     <i name="WC">    100.00000000</i>
     <i type="int" name="INIMIX">     1</i>
     <i type="int" name="MIXPRE">     1</i>
     <i type="int" name="MREMOVE">     5</i>
    </separator>
   </separator>
   <separator name="electronic dipolcorrection" >
    <i type="logical" name="LDIPOL"> F  </i>
    <i type="logical" name="LMONO"> F  </i>
    <i type="int" name="IDIPOL">     0</i>
    <i name="EPSILON">      1.00000000</i>
    <v name="DIPOL">   -100.00000000   -100.00000000   -100.00000000</v>
    <i name="EFIELD">      0.00000000</i>
   </separator>
  </separator>
  <separator name="grids" >
   <i type="int" name="NGX">   168</i>
   <i type="int" name="NGY">   168</i>
   <i type="int" name="NGZ">   150</i>
   <i type="int" name="NGXF">   250</i>
   <i type="int" name="NGYF">   250</i>
   <i type="int" name="NGZF">   224</i>
   <i type="logical" name="ADDGRID"> F  </i>
  </separator>
  <separator name="ionic" >
   <i type="int" name="NSW">     0</i>
   <i type="int" name="IBRION">    -1</i>
   <i type="int" name="MDALGO">     0</i>
   <i type="int" name="ISIF">     2</i>
   <i name="PSTRESS">      0.00000000</i>
   <i name="EDIFFG">     -0.01000000</i>
   <i type="int" name="NFREE">     0</i>
   <i name="POTIM">      0.30000000</i>
   <i name="SMASS">     -3.00000000</i>
   <i name="SCALEE">      1.00000000</i>
  </separator>
  <separator name="ionic md" >
   <i name="TEBEG">      0.00010000</i>
   <i name="TEEND">      0.00010000</i>
   <i type="int" name="NBLOCK">     1</i>
   <i type="int" name="KBLOCK">     1</i>
   <i type="int" name="NPACO">   256</i>
   <i name="APACO">     16.00000000</i>
  </separator>
  <separator name="symmetry" >
   <i type="int" name="ISYM">     2</i>
   <i name="SYMPREC">      0.00001000</i>
  </separator>
  <separator name="dos" >
   <i type="int" name="LORBIT">     0</i>
   <v name="RWIGS">     -1.00000000     -1.00000000     -1.00000000     -1.00000000</v>
   <i type="int" name="NEDOS">   301</i>
   <i name="EMIN">     10.00000000</i>
   <i name="EMAX">    -10.00000000</i>
   <i name="EFERMI">      0.00000000</i>
  </separator>
  <separator name="writing" >
   <i type="int" name="NWRITE">     0</i>
   <i type="logical" name="LWAVE"> F  </i>
   <i type="logical" name="LDOWNSAMPLE"> F  </i>
   <i type="logical" name="LCHARG"> F  </i>
   <i type="logical" name="LPARD"> F  </i>
   <i type="logical" name="LVTOT"> F  </i>
   <i type="logical" name="LVHAR"> F  </i>
   <i type="logical" name="LELF"> F  </i>
   <i type="logical" name="LOPTICS"> F  </i>
   <v name="STM">      0.00000000      0.00000000      0.00000000      0.00000000      0.00000000      0.00000000      0.00000000</v>
  </separator>
  <separator name="performance" >
   <i type="int" name="NPAR">    16</i>
   <i type="int" name="NSIM">     4</i>
   <i type="int" name="NBLK">    -1</i>
   <i type="logical" name="LPLANE"> T  </i>
   <i type="logical" name="LSCALAPACK"> T  </i>
   <i type="logical" name="LSCAAWARE"> F  </i>
   <i type="logical" name="LSCALU"> F  </i>
   <i type="logical" name="LASYNC"> F  </i>
   <i type="logical" name="LORBITALREAL"> F  </i>
  </separator>
  <separator name="miscellaneous" >
   <i type="int" name="IDIOT">     3</i>
   <i type="int" name="ISPECIAL">     0</i>
   <i type="logical" name="LMUSIC"> F  </i>
   <v name="POMASS">     16.00000000     12.01100000     14.00100000      1.00000000</v>
   <v name="DARWINR">      0.00000000      0.00000000      0.00000000      0.00000000</v>
   <v name="DARWINV">      1.00000000      1.00000000      1.00000000      1.00000000</v>
   <i type="logical" name="LCORR"> T  </i>
  </separator>
  <i type="logical" name="GGA_COMPAT"> T  </i>
  <i type="logical" name="LBERRY"> F  </i>
  <i type="int" name="ICORELEVEL">     0</i>
  <i type="logical" name="LDAU"> F  </i>
  <i type="int" name="I_CONSTRAINED_M">     0</i>
  <separator name="electronic exchange-correlation" >
   <i type="string" name="GGA">PE</i>
   <i type="int" name="VOSKOWN">     0</i>
   <i type="logical" name="LHFCALC"> F  </i>
   <i type="string" name="PRECFOCK"></i>
   <i type="logical" name="LSYMGRAD"> F  </i>
   <i type="logical" name="LHFONE"> F  </i>
   <i type="logical" name="LRHFCALC"> F  </i>
   <i type="logical" name="LTHOMAS"> F  </i>
   <i type="logical" name="LMODELHF"> F  </i>
   <i name="ENCUT4O">     -1.00000000</i>
   <i type="int" name="EXXOEP">     0</i>
   <i type="int" name="FOURORBIT">     0</i>
   <i name="AEXX">      0.00000000</i>
   <i name="HFALPHA">      0.00000000</i>
   <i name="MCALPHA">      0.00000000</i>
   <i name="ALDAX">      1.00000000</i>
   <i name="AGGAX">      1.00000000</i>
   <i name="ALDAC">      1.00000000</i>
   <i name="AGGAC">      1.00000000</i>
   <i type="int" name="NKREDX">     1</i>
   <i type="int" name="NKREDY">     1</i>
   <i type="int" name="NKREDZ">     1</i>
   <i type="logical" name="SHIFTRED"> F  </i>
   <i type="logical" name="ODDONLY"> F  </i>
   <i type="logical" name="EVENONLY"> F  </i>
   <i type="int" name="LMAXFOCK">     0</i>
   <i type="int" name="NMAXFOCKAE">     0</i>
   <i type="logical" name="LFOCKAEDFT"> F  </i>
   <i name="HFSCREEN">      0.00000000</i>
   <i name="HFSCREENC">      0.00000000</i>
   <i type="int" name="NBANDSGWLOW">     0</i>
  </separator>
  <separator name="vdW DFT" >
   <i type="logical" name="LUSE_VDW"> F  </i>
   <i name="Zab_VDW">     -0.84910000</i>
   <i name="PARAM1">      0.12340000</i>
   <i name="PARAM2">      1.00000000</i>
   <i name="PARAM3">      0.00000000</i>
  </separator>
  <separator name="model GW" >
   <i type="int" name="MODEL_GW">     0</i>
   <i name="MODEL_EPS0">     66.53970518</i>
   <i name="MODEL_ALPHA">      1.00000000</i>
  </separator>
  <separator name="linear response parameters" >
   <i type="logical" name="LEPSILON"> F  </i>
   <i type="logical" name="LRPA"> F  </i>
   <i type="logical" name="LNABLA"> F  </i>
   <i type="logical" name="LVEL"> F  </i>
   <i type="int" name="KINTER">     0</i>
   <i name="CSHIFT">      0.10000000</i>
   <i name="OMEGAMAX">     -1.00000000</i>
   <i name="DEG_THRESHOLD">      0.00200000</i>
   <i name="RTIME">     -0.10000000</i>
   <i name="WPLASMAI">      0.00000000</i>
   <v name="DFIELD">      0.00000000      0.00000000      0.00000000</v>
   <v name="WPLASMA">      0.00000000      0.00000000      0.00000000      0.00000000      0.00000000      0.00000000      0.00000000      0.00000000      0.00000000</v>
  </separator>
  <separator name="orbital magnetization" >
   <i type="logical" name="NUCIND"> F  </i>
   <v name="MAGPOS">      0.00000000      0.00000000      0.00000000</v>
   <i type="logical" name="LNICSALL"> T  </i>
   <i type="logical" name="ORBITALMAG"> F  </i>
   <i type="logical" name="LMAGBLOCH"> F  </i>
   <i type="logical" name="LCHIMAG"> F  </i>
   <i type="logical" name="LGAUGE"> T  </i>
   <i type="int" name="MAGATOM">     0</i>
   <v name="MAGDIPOL">      0.00000000      0.00000000      0.00000000</v>
   <v name="AVECCONST">      0.00000000      0.00000000      0.00000000</v>
  </separator>
  <separator name="response functions" >
   <i type="logical" name="LADDER"> F  </i>
   <i type="logical" name="LRPAFORCE"> F  </i>
   <i type="logical" name="LFXC"> F  </i>
   <i type="logical" name="LHARTREE"> T  </i>
   <i type="int" name="IBSE">     0</i>
   <v type="int" name="KPOINT">    -1     0     0     0</v>
   <i type="logical" name="LTCTE"> F  </i>
   <i type="logical" name="LTETE"> F  </i>
   <i type="logical" name="LTRIPLET"> F  </i>
   <i type="logical" name="LFXCEPS"> F  </i>
   <i type="logical" name="LFXHEG"> F  </i>
   <i type="int" name="NATURALO">     2</i>
   <i type="logical" name="L2ORDER"> F  </i>
   <i type="logical" name="LMP2LT"> F  </i>
   <i type="logical" name="LUSEW"> F  </i>
   <i name="ENCUTGW">     -2.00000000</i>
   <i name="ENCUTGWSOFT">     -2.00000000</i>
   <i name="ENCUTLF">     -1.00000000</i>
   <i type="int" name="LMAXMP2">    -1</i>
   <i name="SCISSOR">      0.00000000</i>
   <i type="int" name="NOMEGA">     0</i>
   <i type="int" name="NOMEGAR">     0</i>
   <i type="int" name="NBANDSGW">    -1</i>
   <i type="int" name="NBANDSO">    -1</i>
   <i type="int" name="NBANDSV">    -1</i>
   <i type="int" name="NELM">   200</i>
   <i type="int" name="NELMHF">     1</i>
   <i type="int" name="DIM">     3</i>
   <i type="int" name="ANTIRES">     0</i>
   <i name="OMEGAMAX">    -30.00000000</i>
   <i name="OMEGAMIN">    -30.00000000</i>
   <i name="OMEGATL">   -200.00000000</i>
   <i type="int" name="OMEGAGRID">   140</i>
   <i name="CSHIFT">     -0.10000000</i>
   <i type="logical" name="SELFENERGY"> F  </i>
   <i type="logical" name="LSPECTRAL"> F  </i>
   <i type="logical" name="LSPECTRALGW"> F  </i>
   <i type="logical" name="LSINGLES"> F  </i>
   <i type="logical" name="LFERMIGW"> F  </i>
   <i type="logical" name="ODDONLYGW"> F  </i>
   <i type="logical" name="EVENONLYGW"> F  </i>
   <i type="int" name="NKREDLFX">     1</i>
   <i type="int" name="NKREDLFY">     1</i>
   <i type="int" name="NKREDLFZ">     1</i>
   <i type="int" name="MAXMEM">  2800</i>
   <i type="int" name="TELESCOPE">     0</i>
   <i type="int" name="TAUPAR">     1</i>
   <i type="int" name="OMEGAPAR">    -1</i>
   <i name="LAMBDA">      1.00000000</i>
  </separator>
  <separator name="External order field" >
   <i name="OFIELD_KAPPA">      0.00000000</i>
   <v name="OFIELD_K">      0.00000000      0.00000000      0.00000000</v>
   <i name="OFIELD_Q6_NEAR">      0.00000000</i>
   <i name="OFIELD_Q6_FAR">      0.00000000</i>
   <i name="OFIELD_A">      0.00000000</i>
  </separator>
  <separator name="solvation model" >
   <i type="logical" name="LSOL"> F  </i>
  </separator>
 </parameters>
 <atominfo>
  <atoms>      78 </atoms>
  <types>       4 </types>
  <array name="atoms" >
   <dimension dim="1">ion</dimension>
   <field type="string">element</field>
   <field type="int">atomtype</field>
   <set>
    <rc><c>O </c><c>   1</c></rc>
    <rc><c>O </c><c>   1</c></rc>
    <rc><c>O </c><c>   1</c></rc>
    <rc><c>O </c><c>   1</c></rc>
    <rc><c>O </c><c>   1</c></rc>
    <rc><c>O </c><c>   1</c></rc>
    <rc><c>O </c><c>   1</c></rc>
    <rc><c>O </c><c>   1</c></rc>
    <rc><c>O </c><c>   1</c></rc>
    <rc><c>C </c><c>   2</c></rc>
    <rc><c>C </c><c>   2</c></rc>
    <rc><c>C </c><c>   2</c></rc>
    <rc><c>C </c><c>   2</c></rc>
    <rc><c>C </c><c>   2</c></rc>
    <rc><c>C </c><c>   2</c></rc>
    <rc><c>C </c><c>   2</c></rc>
    <rc><c>C </c><c>   2</c></rc>
    <rc><c>C </c><c>   2</c></rc>
    <rc><c>C </c><c>   2</c></rc>
    <rc><c>C </c><c>   2</c></rc>
    <rc><c>C </c><c>   2</c></rc>
    <rc><c>C </c><c>   2</c></rc>
    <rc><c>C </c><c>   2</c></rc>
    <rc><c>C </c><c>   2</c></rc>
    <rc><c>C </c><c>   2</c></rc>
    <rc><c>C </c><c>   2</c></rc>
    <rc><c>C </c><c>   2</c></rc>
    <rc><c>C </c><c>   2</c></rc>
    <rc><c>C </c><c>   2</c></rc>
    <rc><c>C </c><c>   2</c></rc>
    <rc><c>C </c><c>   2</c></rc>
    <rc><c>C </c><c>   2</c></rc>
    <rc><c>C </c><c>   2</c></rc>
    <rc><c>C </c><c>   2</c></rc>
    <rc><c>C </c><c>   2</c></rc>
    <rc><c>C </c><c>   2</c></rc>
    <rc><c>C </c><c>   2</c></rc>
    <rc><c>C </c><c>   2</c></rc>
    <rc><c>C </c><c>   2</c></rc>
    <rc><c>C </c><c>   2</c></rc>
    <rc><c>C </c><c>   2</c></rc>
    <rc><c>C </c><c>   2</c></rc>
    <rc><c>N </c><c>   3</c></rc>
    <rc><c>N </c><c>   3</c></rc>
    <rc><c>N </c><c>   3</c></rc>
    <rc><c>N </c><c>   3</c></rc>
    <rc><c>N </c><c>   3</c></rc>
    <rc><c>N </c><c>   3</c></rc>
    <rc><c>N </c><c>   3</c></rc>
    <rc><c>N </c><c>   3</c></rc>
    <rc><c>N </c><c>   3</c></rc>
    <rc><c>N </c><c>   3</c></rc>
    <rc><c>N </c><c>   3</c></rc>
    <rc><c>N </c><c>   3</c></rc>
    <rc><c>H </c><c>   4</c></rc>
    <rc><c>H </c><c>   4</c></rc>
    <rc><c>H </c><c>   4</c></rc>
    <rc><c>H </c><c>   4</c></rc>
    <rc><c>H </c><c>   4</c></rc>
    <rc><c>H </c><c>   4</c></rc>
    <rc><c>H </c><c>   4</c></rc>
    <rc><c>H </c><c>   4</c></rc>
    <rc><c>H </c><c>   4</c></rc>
    <rc><c>H </c><c>   4</c></rc>
    <rc><c>H </c><c>   4</c></rc>
    <rc><c>H </c><c>   4</c></rc>
    <rc><c>H </c><c>   4</c></rc>
    <rc><c>H </c><c>   4</c></rc>
    <rc><c>H </c><c>   4</c></rc>
    <rc><c>H </c><c>   4</c></rc>
    <rc><c>H </c><c>   4</c></rc>
    <rc><c>H </c><c>   4</c></rc>
    <rc><c>H </c><c>   4</c></rc>
    <rc><c>H </c><c>   4</c></rc>
    <rc><c>H </c><c>   4</c></rc>
    <rc><c>H </c><c>   4</c></rc>
    <rc><c>H </c><c>   4</c></rc>
    <rc><c>H </c><c>   4</c></rc>
   </set>
  </array>
  <array name="atomtypes" >
   <dimension dim="1">type</dimension>
   <field type="int">atomspertype</field>
   <field type="string">element</field>
   <field>mass</field>
   <field>valence</field>
   <field type="string">pseudopotential</field>
   <set>
    <rc><c>   9</c><c>O </c><c>     16.00000000</c><c>      6.00000000</c><c>  PAW_PBE O 08Apr2002                   </c></rc>
    <rc><c>  33</c><c>C </c><c>     12.01100000</c><c>      4.00000000</c><c>  PAW_PBE C 08Apr2002                   </c></rc>
    <rc><c>  12</c><c>N </c><c>     14.00100000</c><c>      5.00000000</c><c>  PAW_PBE N 08Apr2002                   </c></rc>
    <rc><c>  24</c><c>H </c><c>      1.00000000</c><c>      1.00000000</c><c>  PAW_PBE H 15Jun2001                   </c></rc>
   </set>
  </array>
 </atominfo>
 <structure name="initialpos" >
  <crystal>
   <varray name="basis" >
    <v>      22.38082777      -0.03564781       0.00000000 </v>
    <v>     -11.22127928      19.34280993       0.00000000 </v>
    <v>       0.00000000       0.00000000      20.00000000 </v>
   </varray>
   <i name="volume">   8650.16167364 </i>
   <varray name="rec_basis" >
    <v>       0.04472242       0.02594467       0.00000000 </v>
    <v>       0.00008242       0.05174661       0.00000000 </v>
    <v>       0.00000000       0.00000000       0.05000000 </v>
   </varray>
  </crystal>
  <varray name="positions" >
   <v>       0.32895700       0.82340342       0.46352694 </v>
   <v>       0.17727061       0.49684925       0.46600178 </v>
   <v>       0.50409037       0.67292520       0.46554046 </v>
   <v>       0.68409537       0.17693942       0.51672743 </v>
   <v>       0.82647437       0.50282053       0.51455473 </v>
   <v>       0.50010429       0.31743331       0.51596419 </v>
   <v>       0.44793198       0.06124305       0.42574489 </v>
   <v>       0.93967602       0.37922950       0.42725218 </v>
   <v>       0.62172499       0.55425762       0.42675042 </v>
   <v>       0.26630705       0.61431007       0.48185427 </v>
   <v>       0.31662000       0.59448304       0.48198981 </v>
   <v>       0.38690376       0.64416862       0.48188937 </v>
   <v>       0.40697361       0.71454622       0.48119101 </v>
   <v>       0.28714815       0.68458035       0.48108331 </v>
   <v>       0.19209581       0.55655449       0.47877993 </v>
   <v>       0.44447394       0.62783399       0.47868687 </v>
   <v>       0.73968714       0.38519030       0.49254789 </v>
   <v>       0.68688545       0.40153600       0.49286782 </v>
   <v>       0.61746692       0.34914418       0.49291334 </v>
   <v>       0.60090305       0.27978290       0.49336526 </v>
   <v>       0.72241873       0.31581204       0.49313996 </v>
   <v>       0.81274181       0.44457996       0.49578979 </v>
   <v>       0.55804703       0.36236089       0.49664104 </v>
   <v>       0.47732685       0.02725687       0.45376248 </v>
   <v>       0.54499091       0.06846637       0.47995889 </v>
   <v>       0.37862959       0.01877370       0.39936262 </v>
   <v>       0.97424670       0.44291167       0.45507549 </v>
   <v>       0.93371637       0.47024673       0.48044529 </v>
   <v>       0.98139714       0.35142526       0.40170728 </v>
   <v>       0.55828185       0.52471861       0.45500757 </v>
   <v>       0.53151995       0.45694781       0.48098474 </v>
   <v>       0.64858399       0.62339143       0.39994398 </v>
   <v>       0.35752822       0.73513625       0.48097862 </v>
   <v>       0.37403316       0.80921819       0.47690924 </v>
   <v>       0.65306479       0.26280278       0.49305910 </v>
   <v>       0.63957017       0.18997414       0.49679632 </v>
   <v>       0.57426569       0.03170113       0.50782039 </v>
   <v>       0.47587104       0.92971459       0.48519717 </v>
   <v>       0.97104187       0.53659959       0.50806631 </v>
   <v>       0.07226278       0.53885179       0.48681548 </v>
   <v>       0.46533040       0.42740436       0.50890876 </v>
   <v>       0.46229803       0.52591525       0.48698756 </v>
   <v>       0.44312501       0.95901846       0.45584952 </v>
   <v>       0.57467635       0.14020082       0.47654423 </v>
   <v>       0.04238713       0.47644909       0.45770767 </v>
   <v>       0.86199789       0.42856301       0.47669201 </v>
   <v>       0.52441517       0.55880128       0.45744124 </v>
   <v>       0.57352160       0.42751251       0.47721277 </v>
   <v>       0.53979035       0.96221325       0.51086914 </v>
   <v>       0.44263499       0.85778120       0.48939382 </v>
   <v>       0.04043256       0.57109636       0.51173911 </v>
   <v>       0.14414447       0.57704363       0.49141074 </v>
   <v>       0.43051240       0.46182106       0.51238055 </v>
   <v>       0.42399822       0.55927310       0.49157621 </v>
   <v>       0.46246845       0.75107723       0.47831405 </v>
   <v>       0.25080443       0.70354010       0.47801492 </v>
   <v>       0.29745048       0.53895599       0.47966261 </v>
   <v>       0.54612679       0.24079319       0.49688774 </v>
   <v>       0.76118762       0.29997351       0.49654480 </v>
   <v>       0.70291920       0.45635089       0.49595031 </v>
   <v>       0.34366995       0.98471261       0.43843430 </v>
   <v>       0.36345530       0.05566002       0.38208745 </v>
   <v>       0.37898090       0.98680228       0.35790033 </v>
   <v>       0.54331111       0.15610375       0.45636169 </v>
   <v>       0.01472407       0.35014115       0.44122865 </v>
   <v>       0.94404725       0.29927303       0.38442766 </v>
   <v>       0.01404912       0.38351786       0.36037349 </v>
   <v>       0.84567105       0.38090895       0.45694108 </v>
   <v>       0.64988345       0.65863928       0.43881513 </v>
   <v>       0.70061506       0.63864483       0.38229605 </v>
   <v>       0.61585675       0.62251828       0.35865062 </v>
   <v>       0.62097153       0.45921898       0.45718557 </v>
   <v>       0.62644757       0.05915900       0.52815037 </v>
   <v>       0.47400115       0.84118836       0.50806057 </v>
   <v>       0.94410610       0.56201043       0.52765717 </v>
   <v>       0.16133208       0.62544571       0.50954451 </v>
   <v>       0.44030469       0.37503637       0.52888118 </v>
   <v>       0.37578585       0.52789104       0.51009271 </v>
  </varray>
 </structure>
 <calculation>
  <scstep>
   <time name="dav">  488.10  493.70</time>
   <time name="total">  488.24  493.85</time>
   <energy>
    <i name="alphaZ">     37.55584430 </i>
    <i name="ewald">  30701.21681985 </i>
    <i name="hartreedc"> -40832.82763247 </i>
    <i name="XCdc">   1021.70999349 </i>
    <i name="pawpsdc">  25157.57311615 </i>
    <i name="pawaedc"> -25215.84184435 </i>
    <i name="eentropy">     -0.00000000 </i>
    <i name="bandstr">  -3635.65383930 </i>
    <i name="atom">  12221.19833713 </i>
    <i name="e_fr_energy">   -545.06920521 </i>
    <i name="e_wo_entrp">   -545.06920521 </i>
    <i name="e_0_energy">   -545.06920521 </i>
   </energy>
  </scstep>
  <scstep>
   <time name="dav">  562.36  568.66</time>
   <time name="total">  562.36  568.66</time>
   <energy>
    <i name="e_fr_energy">   -546.02981064 </i>
    <i name="e_wo_entrp">   -546.02981064 </i>
    <i name="e_0_energy">   -546.02981064 </i>
   </energy>
  </scstep>
  <scstep>
   <time name="dav">  604.03  610.82</time>
   <time name="total">  604.03  610.82</time>
   <energy>
    <i name="e_fr_energy">   -546.05198468 </i>
    <i name="e_wo_entrp">   -546.05198468 </i>
    <i name="e_0_energy">   -546.05198468 </i>
   </energy>
  </scstep>
  <scstep>
   <time name="dav">  557.21  563.44</time>
   <time name="total">  557.21  563.44</time>
   <energy>
    <i name="e_fr_energy">   -546.05249834 </i>
    <i name="e_wo_entrp">   -546.05249834 </i>
    <i name="e_0_energy">   -546.05249834 </i>
   </energy>
  </scstep>
  <scstep>
   <time name="dav">  526.22  532.25</time>
   <time name="total">  526.22  532.25</time>
   <energy>
    <i name="e_fr_energy">   -546.05252090 </i>
    <i name="e_wo_entrp">   -546.05252090 </i>
    <i name="e_0_energy">   -546.05252090 </i>
   </energy>
  </scstep>
  <scstep>
   <time name="dav">  441.68  446.52</time>
   <time name="total">  441.68  446.53</time>
   <energy>
    <i name="alphaZ">     37.55584430 </i>
    <i name="ewald">  30701.21681985 </i>
    <i name="hartreedc"> -40832.82763247 </i>
    <i name="XCdc">   1021.70999349 </i>
    <i name="pawpsdc">  25157.57311615 </i>
    <i name="pawaedc"> -25215.84184435 </i>
    <i name="eentropy">     -0.00000000 </i>
    <i name="bandstr">  -3636.63715613 </i>
    <i name="atom">  12221.19833713 </i>
    <i name="e_fr_energy">   -546.05252204 </i>
    <i name="e_wo_entrp">   -546.05252204 </i>
    <i name="e_0_energy">   -546.05252204 </i>
   </energy>
  </scstep>
  <structure>
   <crystal>
    <varray name="basis" >
     <v>      22.38082777      -0.03564781       0.00000000 </v>
     <v>     -11.22127928      19.34280993       0.00000000 </v>
     <v>       0.00000000       0.00000000      20.00000000 </v>
    </varray>
    <i name="volume">   8650.16167364 </i>
    <varray name="rec_basis" >
     <v>       0.04472242       0.02594467       0.00000000 </v>
     <v>       0.00008242       0.05174661       0.00000000 </v>
     <v>       0.00000000       0.00000000       0.05000000 </v>
    </varray>
   </crystal>
   <varray name="positions" >
    <v>       0.32895700       0.82340342       0.46352694 </v>
    <v>       0.17727061       0.49684925       0.46600178 </v>
    <v>       0.50409037       0.67292520       0.46554046 </v>
    <v>       0.68409537       0.17693942       0.51672743 </v>
    <v>       0.82647437       0.50282053       0.51455473 </v>
    <v>       0.50010429       0.31743331       0.51596419 </v>
    <v>       0.44793198       0.06124305       0.42574489 </v>
    <v>       0.93967602       0.37922950       0.42725218 </v>
    <v>       0.62172499       0.55425762       0.42675042 </v>
    <v>       0.26630705       0.61431007       0.48185427 </v>
    <v>       0.31662000       0.59448304       0.48198981 </v>
    <v>       0.38690376       0.64416862       0.48188937 </v>
    <v>       0.40697361       0.71454622       0.48119101 </v>
    <v>       0.28714815       0.68458035       0.48108331 </v>
    <v>       0.19209581       0.55655449       0.47877993 </v>
    <v>       0.44447394       0.62783399       0.47868687 </v>
    <v>       0.73968714       0.38519030       0.49254789 </v>
    <v>       0.68688545       0.40153600       0.49286782 </v>
    <v>       0.61746692       0.34914418       0.49291334 </v>
    <v>       0.60090305       0.27978290       0.49336526 </v>
    <v>       0.72241873       0.31581204       0.49313996 </v>
    <v>       0.81274181       0.44457996       0.49578979 </v>
    <v>       0.55804703       0.36236089       0.49664104 </v>
    <v>       0.47732685       0.02725687       0.45376248 </v>
    <v>       0.54499091       0.06846637       0.47995889 </v>
    <v>       0.37862959       0.01877370       0.39936262 </v>
    <v>       0.97424670       0.44291167       0.45507549 </v>
    <v>       0.93371637       0.47024673       0.48044529 </v>
    <v>       0.98139714       0.35142526       0.40170728 </v>
    <v>       0.55828185       0.52471861       0.45500757 </v>
    <v>       0.53151995       0.45694781       0.48098474 </v>
    <v>       0.64858399       0.62339143       0.39994398 </v>
    <v>       0.35752822       0.73513625       0.48097862 </v>
    <v>       0.37403316       0.80921819       0.47690924 </v>
    <v>       0.65306479       0.26280278       0.49305910 </v>
    <v>       0.63957017       0.18997414       0.49679632 </v>
    <v>       0.57426569       0.03170113       0.50782039 </v>
    <v>       0.47587104       0.92971459       0.48519717 </v>
    <v>       0.97104187       0.53659959       0.50806631 </v>
    <v>       0.07226278       0.53885179       0.48681548 </v>
    <v>       0.46533040       0.42740436       0.50890876 </v>
    <v>       0.46229803       0.52591525       0.48698756 </v>
    <v>       0.44312501       0.95901846       0.45584952 </v>
    <v>       0.57467635       0.14020082       0.47654423 </v>
    <v>       0.04238713       0.47644909       0.45770767 </v>
    <v>       0.86199789       0.42856301       0.47669201 </v>
    <v>       0.52441517       0.55880128       0.45744124 </v>
    <v>       0.57352160       0.42751251       0.47721277 </v>
    <v>       0.53979035       0.96221325       0.51086914 </v>
    <v>       0.44263499       0.85778120       0.48939382 </v>
    <v>       0.04043256       0.57109636       0.51173911 </v>
    <v>       0.14414447       0.57704363       0.49141074 </v>
    <v>       0.43051240       0.46182106       0.51238055 </v>
    <v>       0.42399822       0.55927310       0.49157621 </v>
    <v>       0.46246845       0.75107723       0.47831405 </v>
    <v>       0.25080443       0.70354010       0.47801492 </v>
    <v>       0.29745048       0.53895599       0.47966261 </v>
    <v>       0.54612679       0.24079319       0.49688774 </v>
    <v>       0.76118762       0.29997351       0.49654480 </v>
    <v>       0.70291920       0.45635089       0.49595031 </v>
    <v>       0.34366995       0.98471261       0.43843430 </v>
    <v>       0.36345530       0.05566002       0.38208745 </v>
    <v>       0.37898090       0.98680228       0.35790033 </v>
    <v>       0.54331111       0.15610375       0.45636169 </v>
    <v>       0.01472407       0.35014115       0.44122865 </v>
    <v>       0.94404725       0.29927303       0.38442766 </v>
    <v>       0.01404912       0.38351786       0.36037349 </v>
    <v>       0.84567105       0.38090895       0.45694108 </v>
    <v>       0.64988345       0.65863928       0.43881513 </v>
    <v>       0.70061506       0.63864483       0.38229605 </v>
    <v>       0.61585675       0.62251828       0.35865062 </v>
    <v>       0.62097153       0.45921898       0.45718557 </v>
    <v>       0.62644757       0.05915900       0.52815037 </v>
    <v>       0.47400115       0.84118836       0.50806057 </v>
    <v>       0.94410610       0.56201043       0.52765717 </v>
    <v>       0.16133208       0.62544571       0.50954451 </v>
    <v>       0.44030469       0.37503637       0.52888118 </v>
    <v>       0.37578585       0.52789104       0.51009271 </v>
   </varray>
  </structure>
  <varray name="forces" >
   <v>      -0.00169150       0.00193745      -0.00608537 </v>
   <v>      -0.00166453       0.00241408       0.00199814 </v>
   <v>      -0.00255690      -0.00053176      -0.00074077 </v>
   <v>      -0.00626959       0.00087872      -0.00282989 </v>
   <v>      -0.00104624       0.00804512       0.00304871 </v>
   <v>      -0.00356474      -0.00248227      -0.00032340 </v>
   <v>       0.00049316       0.00041246       0.00366703 </v>
   <v>      -0.00328884      -0.00112980       0.00111333 </v>
   <v>       0.00527180       0.00038246      -0.00469681 </v>
   <v>      -0.00258912       0.00354614      -0.00021750 </v>
   <v>      -0.00107718       0.00047190      -0.00155753 </v>
   <v>      -0.00282795       0.00234192      -0.00286240 </v>
   <v>      -0.00003896       0.00088416      -0.00080692 </v>
   <v>       0.00185190       0.00391336      -0.00085325 </v>
   <v>       0.00005010      -0.00249196      -0.00005317 </v>
   <v>      -0.00104106       0.00087101      -0.00103800 </v>
   <v>       0.00069176      -0.00022714       0.00123831 </v>
   <v>       0.00220892       0.00124976       0.00072583 </v>
   <v>       0.00422829      -0.00225055      -0.00077120 </v>
   <v>      -0.00057758      -0.00074282       0.00079166 </v>
   <v>      -0.00099190       0.00130996       0.00010954 </v>
   <v>      -0.00279771      -0.00765142      -0.00133775 </v>
   <v>       0.00191611      -0.00311052      -0.00009270 </v>
   <v>      -0.00185145      -0.00168146       0.00188266 </v>
   <v>      -0.00057270      -0.00391231      -0.00050176 </v>
   <v>      -0.00195452       0.00156112       0.00269935 </v>
   <v>       0.00561050      -0.00046456      -0.00143330 </v>
   <v>      -0.00157819       0.00227923       0.00249331 </v>
   <v>       0.00251447      -0.00033597       0.00174268 </v>
   <v>      -0.00031590      -0.00145833      -0.00095854 </v>
   <v>      -0.00378513       0.00403359      -0.00192801 </v>
   <v>       0.00135582       0.00067887       0.00000674 </v>
   <v>       0.00026269      -0.00204068      -0.00355401 </v>
   <v>       0.00527336      -0.00086852      -0.00151055 </v>
   <v>      -0.00255684       0.00403561       0.00052651 </v>
   <v>       0.00691442      -0.00041004       0.00140991 </v>
   <v>       0.00202858      -0.00009081      -0.00058830 </v>
   <v>       0.00495748       0.00217735       0.00042715 </v>
   <v>      -0.00166733       0.00379345       0.00330050 </v>
   <v>      -0.00176801       0.00074766       0.00064682 </v>
   <v>      -0.00140111       0.00081520      -0.00195124 </v>
   <v>       0.00060109      -0.00401404       0.00285247 </v>
   <v>       0.00301739      -0.00002898       0.00300718 </v>
   <v>      -0.00298208      -0.00212866      -0.00187770 </v>
   <v>      -0.00171968       0.00137321       0.00326595 </v>
   <v>       0.00365663      -0.00400957      -0.00710690 </v>
   <v>       0.00039372      -0.00050980       0.00208384 </v>
   <v>       0.00257646       0.00396567       0.00022167 </v>
   <v>      -0.00265934       0.00176049      -0.00501884 </v>
   <v>      -0.00210496      -0.00435507       0.00120730 </v>
   <v>       0.00298874      -0.00179996       0.00142603 </v>
   <v>      -0.00002367      -0.00165116       0.00033419 </v>
   <v>      -0.00008905       0.00101117      -0.00090920 </v>
   <v>       0.00134489      -0.00135625      -0.00382485 </v>
   <v>      -0.00042799      -0.00270064      -0.00201034 </v>
   <v>       0.00067123      -0.00041498      -0.00290518 </v>
   <v>       0.00155306      -0.00258607      -0.00119119 </v>
   <v>       0.00041552       0.00076533      -0.00170825 </v>
   <v>       0.00084941      -0.00102927       0.00149662 </v>
   <v>       0.00086583       0.00047979       0.00057726 </v>
   <v>      -0.00266069      -0.00040777       0.00126956 </v>
   <v>      -0.00043451       0.00012945       0.00272245 </v>
   <v>      -0.00096551      -0.00046242       0.00130251 </v>
   <v>       0.00107579      -0.00048951       0.00121924 </v>
   <v>      -0.00213484      -0.00013558       0.00079171 </v>
   <v>      -0.00141484       0.00113125       0.00345391 </v>
   <v>      -0.00094010      -0.00169843       0.00162720 </v>
   <v>      -0.00097574       0.00220996       0.00564347 </v>
   <v>       0.00221842      -0.00258012       0.00284594 </v>
   <v>      -0.00042214      -0.00093877       0.00363503 </v>
   <v>       0.00005448       0.00581720      -0.00065607 </v>
   <v>       0.00049513       0.00203507       0.00149774 </v>
   <v>      -0.00130471      -0.00087354      -0.00230302 </v>
   <v>       0.00097411      -0.00004691      -0.00206168 </v>
   <v>       0.00247350      -0.00130099      -0.00047600 </v>
   <v>      -0.00098469       0.00136861       0.00003505 </v>
   <v>      -0.00022049       0.00062722      -0.00090373 </v>
   <v>       0.00008525      -0.00405559      -0.00069923 </v>
  </varray>
  <varray name="stress" >
   <v>       0.10428946      -0.00694258       0.00157877 </v>
   <v>      -0.00694258       0.13725837      -0.00162326 </v>
   <v>       0.00157877      -0.00162326      -0.26388630 </v>
  </varray>
  <energy>
   <i name="e_fr_energy">   -547.58205539 </i>
   <i name="e_wo_entrp">   -547.58205539 </i>
   <i name="e_0_energy">     -0.00000000 </i>
  </energy>
  <time name="totalsc"> 3760.67 3804.50</time>
  <eigenvalues>
   <array>
    <dimension dim="1">band</dimension>
    <dimension dim="2">kpoint</dimension>
    <dimension dim="3">spin</dimension>
    <field>eigene</field>
    <field>occ</field>
    <set>
     <set comment="spin 1">
      <set comment="kpoint 1">
       <r>  -27.3271    1.0000 </r>
       <r>  -27.3256    1.0000 </r>
       <r>  -27.3245    1.0000 </r>
       <r>  -26.0671    1.0000 </r>
       <r>  -26.0523    1.0000 </r>
       <r>  -26.0505    1.0000 </r>
       <r>  -26.0036    1.0000 </r>
       <r>  -25.9901    1.0000 </r>
       <r>  -25.9868    1.0000 </r>
       <r>  -24.8838    1.0000 </r>
       <r>  -24.8817    1.0000 </r>
       <r>  -24.8803    1.0000 </r>
       <r>  -23.6941    1.0000 </r>
       <r>  -23.6921    1.0000 </r>
       <r>  -23.6889    1.0000 </r>
       <r>  -22.9544    1.0000 </r>
       <r>  -22.9426    1.0000 </r>
       <r>  -22.9410    1.0000 </r>
       <r>  -22.0302    1.0000 </r>
       <r>  -22.0226    1.0000 </r>
       <r>  -22.0213    1.0000 </r>
       <r>  -21.9037    1.0000 </r>
       <r>  -21.7394    1.0000 </r>
       <r>  -19.9048    1.0000 </r>
       <r>  -19.9044    1.0000 </r>
       <r>  -19.4320    1.0000 </r>
       <r>  -19.3642    1.0000 </r>
       <r>  -19.3637    1.0000 </r>
       <r>  -18.8680    1.0000 </r>
       <r>  -18.8655    1.0000 </r>
       <r>  -17.9012    1.0000 </r>
       <r>  -17.8579    1.0000 </r>
       <r>  -17.8568    1.0000 </r>
       <r>  -17.2769    1.0000 </r>
       <r>  -17.1569    1.0000 </r>
       <r>  -17.1548    1.0000 </r>
       <r>  -16.1697    1.0000 </r>
       <r>  -16.1679    1.0000 </r>
       <r>  -15.8923    1.0000 </r>
       <r>  -15.8107    1.0000 </r>
       <r>  -15.8091    1.0000 </r>
       <r>  -15.6786    1.0000 </r>
       <r>  -15.5329    1.0000 </r>
       <r>  -15.5317    1.0000 </r>
       <r>  -14.9354    1.0000 </r>
       <r>  -14.9332    1.0000 </r>
       <r>  -14.8849    1.0000 </r>
       <r>  -14.4978    1.0000 </r>
       <r>  -14.0831    1.0000 </r>
       <r>  -14.0809    1.0000 </r>
       <r>  -13.8146    1.0000 </r>
       <r>  -13.6647    1.0000 </r>
       <r>  -13.6622    1.0000 </r>
       <r>  -13.5527    1.0000 </r>
       <r>  -13.5491    1.0000 </r>
       <r>  -13.3407    1.0000 </r>
       <r>  -13.0901    1.0000 </r>
       <r>  -12.7024    1.0000 </r>
       <r>  -12.4866    1.0000 </r>
       <r>  -12.4830    1.0000 </r>
       <r>  -12.2117    1.0000 </r>
       <r>  -11.9227    1.0000 </r>
       <r>  -11.9213    1.0000 </r>
       <r>  -11.9085    1.0000 </r>
       <r>  -11.8340    1.0000 </r>
       <r>  -11.8148    1.0000 </r>
       <r>  -11.8134    1.0000 </r>
       <r>  -11.7473    1.0000 </r>
       <r>  -11.4868    1.0000 </r>
       <r>  -11.4454    1.0000 </r>
       <r>  -11.4433    1.0000 </r>
       <r>  -11.2367    1.0000 </r>
       <r>  -11.2352    1.0000 </r>
       <r>  -11.2329    1.0000 </r>
       <r>  -10.8839    1.0000 </r>
       <r>  -10.8818    1.0000 </r>
       <r>  -10.8742    1.0000 </r>
       <r>  -10.7371    1.0000 </r>
       <r>  -10.7059    1.0000 </r>
       <r>  -10.7045    1.0000 </r>
       <r>  -10.6886    1.0000 </r>
       <r>  -10.5963    1.0000 </r>
       <r>  -10.5944    1.0000 </r>
       <r>  -10.2174    1.0000 </r>
       <r>  -10.1404    1.0000 </r>
       <r>  -10.1369    1.0000 </r>
       <r>  -10.0310    1.0000 </r>
       <r>   -9.9894    1.0000 </r>
       <r>   -9.9881    1.0000 </r>
       <r>   -9.8318    1.0000 </r>
       <r>   -9.8282    1.0000 </r>
       <r>   -9.8265    1.0000 </r>
       <r>   -9.7337    1.0000 </r>
       <r>   -9.7299    1.0000 </r>
       <r>   -9.7200    1.0000 </r>
       <r>   -9.4236    1.0000 </r>
       <r>   -8.9955    1.0000 </r>
       <r>   -8.9928    1.0000 </r>
       <r>   -8.8814    1.0000 </r>
       <r>   -8.8144    1.0000 </r>
       <r>   -8.8130    1.0000 </r>
       <r>   -8.7322    1.0000 </r>
       <r>   -8.7315    1.0000 </r>
       <r>   -8.5932    1.0000 </r>
       <r>   -8.5835    1.0000 </r>
       <r>   -8.5810    1.0000 </r>
       <r>   -8.4818    1.0000 </r>
       <r>   -8.1443    1.0000 </r>
       <r>   -8.1434    1.0000 </r>
       <r>   -7.9539    1.0000 </r>
       <r>   -7.6348    1.0000 </r>
       <r>   -7.6320    1.0000 </r>
       <r>   -7.6247    1.0000 </r>
       <r>   -7.1077    1.0000 </r>
       <r>   -7.1063    1.0000 </r>
       <r>   -7.0483    1.0000 </r>
       <r>   -6.8170    1.0000 </r>
       <r>   -6.8156    1.0000 </r>
       <r>   -6.8045    1.0000 </r>
       <r>   -6.8026    1.0000 </r>
       <r>   -6.7788    1.0000 </r>
       <r>   -6.6179    1.0000 </r>
       <r>   -6.6169    1.0000 </r>
       <r>   -6.2494    1.0000 </r>
       <r>   -6.0976    1.0000 </r>
       <r>   -6.0967    1.0000 </r>
       <r>   -5.9926    1.0000 </r>
       <r>   -5.8194    1.0000 </r>
       <r>   -5.8173    1.0000 </r>
       <r>   -5.5975    1.0000 </r>
       <r>   -5.4851    1.0000 </r>
       <r>   -5.4828    1.0000 </r>
       <r>   -5.2349    1.0000 </r>
       <r>   -5.2093    1.0000 </r>
       <r>   -5.2046    1.0000 </r>
       <r>   -2.6924    0.0000 </r>
       <r>   -2.6911    0.0000 </r>
       <r>   -2.3910    0.0000 </r>
       <r>   -2.3891    0.0000 </r>
       <r>   -2.0171    0.0000 </r>
       <r>   -1.5567    0.0000 </r>
       <r>   -1.5538    0.0000 </r>
       <r>   -1.5238    0.0000 </r>
       <r>   -1.1331    0.0000 </r>
       <r>   -0.9600    0.0000 </r>
       <r>   -0.9567    0.0000 </r>
       <r>   -0.4865    0.0000 </r>
       <r>   -0.2218    0.0000 </r>
       <r>   -0.1514    0.0000 </r>
       <r>   -0.1488    0.0000 </r>
       <r>   -0.1061    0.0000 </r>
       <r>    0.1838    0.0000 </r>
       <r>    0.1848    0.0000 </r>
       <r>    0.2728    0.0000 </r>
       <r>    0.4005    0.0000 </r>
       <r>    0.4017    0.0000 </r>
       <r>    0.4303    0.0000 </r>
       <r>    0.5321    0.0000 </r>
       <r>    0.5407    0.0000 </r>
       <r>    0.6054    0.0000 </r>
       <r>    0.6325    0.0000 </r>
       <r>    0.6486    0.0000 </r>
       <r>    0.6520    0.0000 </r>
       <r>    0.7243    0.0000 </r>
       <r>    0.7696    0.0000 </r>
       <r>    0.7705    0.0000 </r>
       <r>    0.8819    0.0000 </r>
       <r>    0.9010    0.0000 </r>
       <r>    0.9424    0.0000 </r>
       <r>    0.9439    0.0000 </r>
       <r>    1.0339    0.0000 </r>
       <r>    1.0363    0.0000 </r>
       <r>    1.0475    0.0000 </r>
       <r>    1.0484    0.0000 </r>
       <r>    1.0635    0.0000 </r>
       <r>    1.0998    0.0000 </r>
      </set>
      <set comment="kpoint 2">
       <r>  -27.3271    1.0000 </r>
       <r>  -27.3256    1.0000 </r>
       <r>  -27.3245    1.0000 </r>
       <r>  -26.0671    1.0000 </r>
       <r>  -26.0523    1.0000 </r>
       <r>  -26.0505    1.0000 </r>
       <r>  -26.0036    1.0000 </r>
       <r>  -25.9901    1.0000 </r>
       <r>  -25.9868    1.0000 </r>
       <r>  -24.8838    1.0000 </r>
       <r>  -24.8817    1.0000 </r>
       <r>  -24.8803    1.0000 </r>
       <r>  -23.6941    1.0000 </r>
       <r>  -23.6921    1.0000 </r>
       <r>  -23.6889    1.0000 </r>
       <r>  -22.9544    1.0000 </r>
       <r>  -22.9426    1.0000 </r>
       <r>  -22.9410    1.0000 </r>
       <r>  -22.0302    1.0000 </r>
       <r>  -22.0226    1.0000 </r>
       <r>  -22.0213    1.0000 </r>
       <r>  -21.9037    1.0000 </r>
       <r>  -21.7394    1.0000 </r>
       <r>  -19.9048    1.0000 </r>
       <r>  -19.9042    1.0000 </r>
       <r>  -19.4362    1.0000 </r>
       <r>  -19.3637    1.0000 </r>
       <r>  -19.3599    1.0000 </r>
       <r>  -18.8683    1.0000 </r>
       <r>  -18.8657    1.0000 </r>
       <r>  -17.9011    1.0000 </r>
       <r>  -17.8579    1.0000 </r>
       <r>  -17.8568    1.0000 </r>
       <r>  -17.2767    1.0000 </r>
       <r>  -17.1569    1.0000 </r>
       <r>  -17.1549    1.0000 </r>
       <r>  -16.1697    1.0000 </r>
       <r>  -16.1676    1.0000 </r>
       <r>  -15.8927    1.0000 </r>
       <r>  -15.8107    1.0000 </r>
       <r>  -15.8091    1.0000 </r>
       <r>  -15.6800    1.0000 </r>
       <r>  -15.5323    1.0000 </r>
       <r>  -15.5306    1.0000 </r>
       <r>  -14.9367    1.0000 </r>
       <r>  -14.9341    1.0000 </r>
       <r>  -14.8830    1.0000 </r>
       <r>  -14.4977    1.0000 </r>
       <r>  -14.0831    1.0000 </r>
       <r>  -14.0807    1.0000 </r>
       <r>  -13.8154    1.0000 </r>
       <r>  -13.6643    1.0000 </r>
       <r>  -13.6622    1.0000 </r>
       <r>  -13.5529    1.0000 </r>
       <r>  -13.5491    1.0000 </r>
       <r>  -13.3405    1.0000 </r>
       <r>  -13.0901    1.0000 </r>
       <r>  -12.7021    1.0000 </r>
       <r>  -12.4869    1.0000 </r>
       <r>  -12.4831    1.0000 </r>
       <r>  -12.2117    1.0000 </r>
       <r>  -11.9225    1.0000 </r>
       <r>  -11.9212    1.0000 </r>
       <r>  -11.9084    1.0000 </r>
       <r>  -11.8340    1.0000 </r>
       <r>  -11.8148    1.0000 </r>
       <r>  -11.8134    1.0000 </r>
       <r>  -11.7474    1.0000 </r>
       <r>  -11.4867    1.0000 </r>
       <r>  -11.4454    1.0000 </r>
       <r>  -11.4433    1.0000 </r>
       <r>  -11.2368    1.0000 </r>
       <r>  -11.2351    1.0000 </r>
       <r>  -11.2329    1.0000 </r>
       <r>  -10.8839    1.0000 </r>
       <r>  -10.8818    1.0000 </r>
       <r>  -10.8742    1.0000 </r>
       <r>  -10.7372    1.0000 </r>
       <r>  -10.7059    1.0000 </r>
       <r>  -10.7045    1.0000 </r>
       <r>  -10.6885    1.0000 </r>
       <r>  -10.5965    1.0000 </r>
       <r>  -10.5944    1.0000 </r>
       <r>  -10.2171    1.0000 </r>
       <r>  -10.1404    1.0000 </r>
       <r>  -10.1368    1.0000 </r>
       <r>  -10.0312    1.0000 </r>
       <r>   -9.9893    1.0000 </r>
       <r>   -9.9881    1.0000 </r>
       <r>   -9.8318    1.0000 </r>
       <r>   -9.8286    1.0000 </r>
       <r>   -9.8266    1.0000 </r>
       <r>   -9.7338    1.0000 </r>
       <r>   -9.7302    1.0000 </r>
       <r>   -9.7198    1.0000 </r>
       <r>   -9.4227    1.0000 </r>
       <r>   -8.9955    1.0000 </r>
       <r>   -8.9929    1.0000 </r>
       <r>   -8.8827    1.0000 </r>
       <r>   -8.8144    1.0000 </r>
       <r>   -8.8130    1.0000 </r>
       <r>   -8.7320    1.0000 </r>
       <r>   -8.7307    1.0000 </r>
       <r>   -8.5932    1.0000 </r>
       <r>   -8.5835    1.0000 </r>
       <r>   -8.5810    1.0000 </r>
       <r>   -8.4818    1.0000 </r>
       <r>   -8.1443    1.0000 </r>
       <r>   -8.1432    1.0000 </r>
       <r>   -7.9541    1.0000 </r>
       <r>   -7.6348    1.0000 </r>
       <r>   -7.6320    1.0000 </r>
       <r>   -7.6247    1.0000 </r>
       <r>   -7.1076    1.0000 </r>
       <r>   -7.1062    1.0000 </r>
       <r>   -7.0484    1.0000 </r>
       <r>   -6.8170    1.0000 </r>
       <r>   -6.8156    1.0000 </r>
       <r>   -6.8045    1.0000 </r>
       <r>   -6.8026    1.0000 </r>
       <r>   -6.7788    1.0000 </r>
       <r>   -6.6179    1.0000 </r>
       <r>   -6.6169    1.0000 </r>
       <r>   -6.2494    1.0000 </r>
       <r>   -6.0977    1.0000 </r>
       <r>   -6.0967    1.0000 </r>
       <r>   -5.9923    1.0000 </r>
       <r>   -5.8197    1.0000 </r>
       <r>   -5.8173    1.0000 </r>
       <r>   -5.5973    1.0000 </r>
       <r>   -5.4851    1.0000 </r>
       <r>   -5.4829    1.0000 </r>
       <r>   -5.2349    1.0000 </r>
       <r>   -5.2094    1.0000 </r>
       <r>   -5.2046    1.0000 </r>
       <r>   -2.6922    0.0000 </r>
       <r>   -2.6910    0.0000 </r>
       <r>   -2.3920    0.0000 </r>
       <r>   -2.3891    0.0000 </r>
       <r>   -2.0157    0.0000 </r>
       <r>   -1.5568    0.0000 </r>
       <r>   -1.5539    0.0000 </r>
       <r>   -1.5238    0.0000 </r>
       <r>   -1.1375    0.0000 </r>
       <r>   -0.9590    0.0000 </r>
       <r>   -0.9531    0.0000 </r>
       <r>   -0.4864    0.0000 </r>
       <r>   -0.2227    0.0000 </r>
       <r>   -0.1511    0.0000 </r>
       <r>   -0.1489    0.0000 </r>
       <r>   -0.1064    0.0000 </r>
       <r>    0.1840    0.0000 </r>
       <r>    0.1844    0.0000 </r>
       <r>    0.2732    0.0000 </r>
       <r>    0.4002    0.0000 </r>
       <r>    0.4015    0.0000 </r>
       <r>    0.4306    0.0000 </r>
       <r>    0.5321    0.0000 </r>
       <r>    0.5408    0.0000 </r>
       <r>    0.6055    0.0000 </r>
       <r>    0.6283    0.0000 </r>
       <r>    0.6502    0.0000 </r>
       <r>    0.6548    0.0000 </r>
       <r>    0.7244    0.0000 </r>
       <r>    0.7691    0.0000 </r>
       <r>    0.7707    0.0000 </r>
       <r>    0.8810    0.0000 </r>
       <r>    0.9005    0.0000 </r>
       <r>    0.9435    0.0000 </r>
       <r>    0.9440    0.0000 </r>
       <r>    1.0324    0.0000 </r>
       <r>    1.0345    0.0000 </r>
       <r>    1.0474    0.0000 </r>
       <r>    1.0487    0.0000 </r>
       <r>    1.0639    0.0000 </r>
       <r>    1.0971    0.0000 </r>
      </set>
      <set comment="kpoint 3">
       <r>  -27.3271    1.0000 </r>
       <r>  -27.3256    1.0000 </r>
       <r>  -27.3245    1.0000 </r>
       <r>  -26.0671    1.0000 </r>
       <r>  -26.0523    1.0000 </r>
       <r>  -26.0505    1.0000 </r>
       <r>  -26.0035    1.0000 </r>
       <r>  -25.9901    1.0000 </r>
       <r>  -25.9868    1.0000 </r>
       <r>  -24.8838    1.0000 </r>
       <r>  -24.8817    1.0000 </r>
       <r>  -24.8803    1.0000 </r>
       <r>  -23.6941    1.0000 </r>
       <r>  -23.6921    1.0000 </r>
       <r>  -23.6889    1.0000 </r>
       <r>  -22.9544    1.0000 </r>
       <r>  -22.9426    1.0000 </r>
       <r>  -22.9410    1.0000 </r>
       <r>  -22.0302    1.0000 </r>
       <r>  -22.0226    1.0000 </r>
       <r>  -22.0213    1.0000 </r>
       <r>  -21.9036    1.0000 </r>
       <r>  -21.7395    1.0000 </r>
       <r>  -19.9048    1.0000 </r>
       <r>  -19.9034    1.0000 </r>
       <r>  -19.4464    1.0000 </r>
       <r>  -19.3637    1.0000 </r>
       <r>  -19.3491    1.0000 </r>
       <r>  -18.8693    1.0000 </r>
       <r>  -18.8660    1.0000 </r>
       <r>  -17.9011    1.0000 </r>
       <r>  -17.8580    1.0000 </r>
       <r>  -17.8569    1.0000 </r>
       <r>  -17.2760    1.0000 </r>
       <r>  -17.1569    1.0000 </r>
       <r>  -17.1553    1.0000 </r>
       <r>  -16.1696    1.0000 </r>
       <r>  -16.1667    1.0000 </r>
       <r>  -15.8941    1.0000 </r>
       <r>  -15.8108    1.0000 </r>
       <r>  -15.8092    1.0000 </r>
       <r>  -15.6838    1.0000 </r>
       <r>  -15.5321    1.0000 </r>
       <r>  -15.5252    1.0000 </r>
       <r>  -14.9423    1.0000 </r>
       <r>  -14.9344    1.0000 </r>
       <r>  -14.8781    1.0000 </r>
       <r>  -14.4975    1.0000 </r>
       <r>  -14.0831    1.0000 </r>
       <r>  -14.0802    1.0000 </r>
       <r>  -13.8177    1.0000 </r>
       <r>  -13.6634    1.0000 </r>
       <r>  -13.6617    1.0000 </r>
       <r>  -13.5532    1.0000 </r>
       <r>  -13.5491    1.0000 </r>
       <r>  -13.3397    1.0000 </r>
       <r>  -13.0903    1.0000 </r>
       <r>  -12.7012    1.0000 </r>
       <r>  -12.4879    1.0000 </r>
       <r>  -12.4833    1.0000 </r>
       <r>  -12.2118    1.0000 </r>
       <r>  -11.9221    1.0000 </r>
       <r>  -11.9210    1.0000 </r>
       <r>  -11.9082    1.0000 </r>
       <r>  -11.8339    1.0000 </r>
       <r>  -11.8148    1.0000 </r>
       <r>  -11.8134    1.0000 </r>
       <r>  -11.7480    1.0000 </r>
       <r>  -11.4867    1.0000 </r>
       <r>  -11.4454    1.0000 </r>
       <r>  -11.4434    1.0000 </r>
       <r>  -11.2370    1.0000 </r>
       <r>  -11.2349    1.0000 </r>
       <r>  -11.2329    1.0000 </r>
       <r>  -10.8839    1.0000 </r>
       <r>  -10.8818    1.0000 </r>
       <r>  -10.8743    1.0000 </r>
       <r>  -10.7373    1.0000 </r>
       <r>  -10.7058    1.0000 </r>
       <r>  -10.7045    1.0000 </r>
       <r>  -10.6884    1.0000 </r>
       <r>  -10.5970    1.0000 </r>
       <r>  -10.5944    1.0000 </r>
       <r>  -10.2163    1.0000 </r>
       <r>  -10.1403    1.0000 </r>
       <r>  -10.1365    1.0000 </r>
       <r>  -10.0315    1.0000 </r>
       <r>   -9.9892    1.0000 </r>
       <r>   -9.9881    1.0000 </r>
       <r>   -9.8322    1.0000 </r>
       <r>   -9.8296    1.0000 </r>
       <r>   -9.8267    1.0000 </r>
       <r>   -9.7343    1.0000 </r>
       <r>   -9.7310    1.0000 </r>
       <r>   -9.7192    1.0000 </r>
       <r>   -9.4201    1.0000 </r>
       <r>   -8.9955    1.0000 </r>
       <r>   -8.9931    1.0000 </r>
       <r>   -8.8866    1.0000 </r>
       <r>   -8.8143    1.0000 </r>
       <r>   -8.8129    1.0000 </r>
       <r>   -8.7319    1.0000 </r>
       <r>   -8.7279    1.0000 </r>
       <r>   -8.5932    1.0000 </r>
       <r>   -8.5836    1.0000 </r>
       <r>   -8.5811    1.0000 </r>
       <r>   -8.4819    1.0000 </r>
       <r>   -8.1443    1.0000 </r>
       <r>   -8.1427    1.0000 </r>
       <r>   -7.9546    1.0000 </r>
       <r>   -7.6348    1.0000 </r>
       <r>   -7.6320    1.0000 </r>
       <r>   -7.6247    1.0000 </r>
       <r>   -7.1075    1.0000 </r>
       <r>   -7.1060    1.0000 </r>
       <r>   -7.0486    1.0000 </r>
       <r>   -6.8169    1.0000 </r>
       <r>   -6.8156    1.0000 </r>
       <r>   -6.8045    1.0000 </r>
       <r>   -6.8027    1.0000 </r>
       <r>   -6.7788    1.0000 </r>
       <r>   -6.6179    1.0000 </r>
       <r>   -6.6169    1.0000 </r>
       <r>   -6.2493    1.0000 </r>
       <r>   -6.0982    1.0000 </r>
       <r>   -6.0968    1.0000 </r>
       <r>   -5.9913    1.0000 </r>
       <r>   -5.8205    1.0000 </r>
       <r>   -5.8174    1.0000 </r>
       <r>   -5.5967    1.0000 </r>
       <r>   -5.4851    1.0000 </r>
       <r>   -5.4831    1.0000 </r>
       <r>   -5.2348    1.0000 </r>
       <r>   -5.2094    1.0000 </r>
       <r>   -5.2047    1.0000 </r>
       <r>   -2.6917    0.0000 </r>
       <r>   -2.6908    0.0000 </r>
       <r>   -2.3949    0.0000 </r>
       <r>   -2.3891    0.0000 </r>
       <r>   -2.0116    0.0000 </r>
       <r>   -1.5569    0.0000 </r>
       <r>   -1.5541    0.0000 </r>
       <r>   -1.5238    0.0000 </r>
       <r>   -1.1496    0.0000 </r>
       <r>   -0.9586    0.0000 </r>
       <r>   -0.9411    0.0000 </r>
       <r>   -0.4861    0.0000 </r>
       <r>   -0.2250    0.0000 </r>
       <r>   -0.1506    0.0000 </r>
       <r>   -0.1493    0.0000 </r>
       <r>   -0.1071    0.0000 </r>
       <r>    0.1831    0.0000 </r>
       <r>    0.1849    0.0000 </r>
       <r>    0.2745    0.0000 </r>
       <r>    0.3992    0.0000 </r>
       <r>    0.4010    0.0000 </r>
       <r>    0.4317    0.0000 </r>
       <r>    0.5321    0.0000 </r>
       <r>    0.5411    0.0000 </r>
       <r>    0.6058    0.0000 </r>
       <r>    0.6209    0.0000 </r>
       <r>    0.6498    0.0000 </r>
       <r>    0.6631    0.0000 </r>
       <r>    0.7248    0.0000 </r>
       <r>    0.7676    0.0000 </r>
       <r>    0.7711    0.0000 </r>
       <r>    0.8782    0.0000 </r>
       <r>    0.8994    0.0000 </r>
       <r>    0.9440    0.0000 </r>
       <r>    0.9462    0.0000 </r>
       <r>    1.0277    0.0000 </r>
       <r>    1.0309    0.0000 </r>
       <r>    1.0471    0.0000 </r>
       <r>    1.0494    0.0000 </r>
       <r>    1.0650    0.0000 </r>
       <r>    1.0937    0.0000 </r>
      </set>
      <set comment="kpoint 4">
       <r>  -27.3271    1.0000 </r>
       <r>  -27.3256    1.0000 </r>
       <r>  -27.3245    1.0000 </r>
       <r>  -26.0671    1.0000 </r>
       <r>  -26.0523    1.0000 </r>
       <r>  -26.0505    1.0000 </r>
       <r>  -26.0035    1.0000 </r>
       <r>  -25.9901    1.0000 </r>
       <r>  -25.9868    1.0000 </r>
       <r>  -24.8838    1.0000 </r>
       <r>  -24.8817    1.0000 </r>
       <r>  -24.8803    1.0000 </r>
       <r>  -23.6941    1.0000 </r>
       <r>  -23.6921    1.0000 </r>
       <r>  -23.6889    1.0000 </r>
       <r>  -22.9543    1.0000 </r>
       <r>  -22.9426    1.0000 </r>
       <r>  -22.9410    1.0000 </r>
       <r>  -22.0302    1.0000 </r>
       <r>  -22.0226    1.0000 </r>
       <r>  -22.0214    1.0000 </r>
       <r>  -21.9035    1.0000 </r>
       <r>  -21.7396    1.0000 </r>
       <r>  -19.9048    1.0000 </r>
       <r>  -19.9022    1.0000 </r>
       <r>  -19.4596    1.0000 </r>
       <r>  -19.3637    1.0000 </r>
       <r>  -19.3351    1.0000 </r>
       <r>  -18.8713    1.0000 </r>
       <r>  -18.8662    1.0000 </r>
       <r>  -17.9011    1.0000 </r>
       <r>  -17.8581    1.0000 </r>
       <r>  -17.8570    1.0000 </r>
       <r>  -17.2748    1.0000 </r>
       <r>  -17.1570    1.0000 </r>
       <r>  -17.1560    1.0000 </r>
       <r>  -16.1696    1.0000 </r>
       <r>  -16.1652    1.0000 </r>
       <r>  -15.8963    1.0000 </r>
       <r>  -15.8109    1.0000 </r>
       <r>  -15.8092    1.0000 </r>
       <r>  -15.6895    1.0000 </r>
       <r>  -15.5322    1.0000 </r>
       <r>  -15.5169    1.0000 </r>
       <r>  -14.9505    1.0000 </r>
       <r>  -14.9344    1.0000 </r>
       <r>  -14.8717    1.0000 </r>
       <r>  -14.4972    1.0000 </r>
       <r>  -14.0832    1.0000 </r>
       <r>  -14.0793    1.0000 </r>
       <r>  -13.8215    1.0000 </r>
       <r>  -13.6629    1.0000 </r>
       <r>  -13.6602    1.0000 </r>
       <r>  -13.5537    1.0000 </r>
       <r>  -13.5491    1.0000 </r>
       <r>  -13.3385    1.0000 </r>
       <r>  -13.0906    1.0000 </r>
       <r>  -12.6998    1.0000 </r>
       <r>  -12.4896    1.0000 </r>
       <r>  -12.4835    1.0000 </r>
       <r>  -12.2119    1.0000 </r>
       <r>  -11.9218    1.0000 </r>
       <r>  -11.9204    1.0000 </r>
       <r>  -11.9077    1.0000 </r>
       <r>  -11.8339    1.0000 </r>
       <r>  -11.8148    1.0000 </r>
       <r>  -11.8134    1.0000 </r>
       <r>  -11.7488    1.0000 </r>
       <r>  -11.4867    1.0000 </r>
       <r>  -11.4454    1.0000 </r>
       <r>  -11.4434    1.0000 </r>
       <r>  -11.2372    1.0000 </r>
       <r>  -11.2347    1.0000 </r>
[...]
       <r>   -27.9162     0.0000     0.0000 </r>
       <r>   -27.8117     0.0000     0.0000 </r>
       <r>   -27.7072     0.0000     0.0000 </r>
       <r>   -27.6027     0.0000     0.0000 </r>
       <r>   -27.4982     0.0000     0.0000 </r>
       <r>   -27.3936     0.0000     0.0000 </r>
       <r>   -27.2891    57.4064     6.0000 </r>
       <r>   -27.1846     0.0000     6.0000 </r>
       <r>   -27.0801     0.0000     6.0000 </r>
       <r>   -26.9756     0.0000     6.0000 </r>
       <r>   -26.8710     0.0000     6.0000 </r>
       <r>   -26.7665     0.0000     6.0000 </r>
       <r>   -26.6620     0.0000     6.0000 </r>
       <r>   -26.5575     0.0000     6.0000 </r>
       <r>   -26.4530     0.0000     6.0000 </r>
       <r>   -26.3485     0.0000     6.0000 </r>
       <r>   -26.2439     0.0000     6.0000 </r>
       <r>   -26.1394     0.0000     6.0000 </r>
       <r>   -26.0349    57.0105    11.9586 </r>
       <r>   -25.9304    57.4063    18.0000 </r>
       <r>   -25.8259     0.0000    18.0000 </r>
       <r>   -25.7214     0.0000    18.0000 </r>
       <r>   -25.6168     0.0000    18.0000 </r>
       <r>   -25.5123     0.0000    18.0000 </r>
       <r>   -25.4078     0.0000    18.0000 </r>
       <r>   -25.3033     0.0000    18.0000 </r>
       <r>   -25.1988     0.0000    18.0000 </r>
       <r>   -25.0942     0.0000    18.0000 </r>
       <r>   -24.9897     0.0000    18.0000 </r>
       <r>   -24.8852    18.5994    19.9440 </r>
       <r>   -24.7807     0.0000    24.0000 </r>
       <r>   -24.6762     0.0000    24.0000 </r>
       <r>   -24.5717     0.0000    24.0000 </r>
       <r>   -24.4671     0.0000    24.0000 </r>
       <r>   -24.3626     0.0000    24.0000 </r>
       <r>   -24.2581     0.0000    24.0000 </r>
       <r>   -24.1536     0.0000    24.0000 </r>
       <r>   -24.0491     0.0000    24.0000 </r>
       <r>   -23.9445     0.0000    24.0000 </r>
       <r>   -23.8400     0.0000    24.0000 </r>
       <r>   -23.7355     0.0000    24.0000 </r>
       <r>   -23.6310    57.4064    30.0000 </r>
       <r>   -23.5265     0.0000    30.0000 </r>
       <r>   -23.4220     0.0000    30.0000 </r>
       <r>   -23.3174     0.0000    30.0000 </r>
       <r>   -23.2129     0.0000    30.0000 </r>
       <r>   -23.1084     0.0000    30.0000 </r>
       <r>   -23.0039     0.0000    30.0000 </r>
       <r>   -22.8994    57.4064    36.0000 </r>
       <r>   -22.7948     0.0000    36.0000 </r>
       <r>   -22.6903     0.0000    36.0000 </r>
       <r>   -22.5858     0.0000    36.0000 </r>
       <r>   -22.4813     0.0000    36.0000 </r>
       <r>   -22.3768     0.0000    36.0000 </r>
       <r>   -22.2723     0.0000    36.0000 </r>
       <r>   -22.1677     0.0000    36.0000 </r>
       <r>   -22.0632     0.0000    36.0000 </r>
       <r>   -21.9587    57.4064    42.0000 </r>
       <r>   -21.8542    19.1355    44.0000 </r>
       <r>   -21.7497     3.1175    44.3258 </r>
       <r>   -21.6452     0.0000    46.0000 </r>
       <r>   -21.5406     0.0000    46.0000 </r>
       <r>   -21.4361     0.0000    46.0000 </r>
       <r>   -21.3316     0.0000    46.0000 </r>
       <r>   -21.2271     0.0000    46.0000 </r>
       <r>   -21.1226     0.0000    46.0000 </r>
       <r>   -21.0180     0.0000    46.0000 </r>
       <r>   -20.9135     0.0000    46.0000 </r>
       <r>   -20.8090     0.0000    46.0000 </r>
       <r>   -20.7045     0.0000    46.0000 </r>
       <r>   -20.6000     0.0000    46.0000 </r>
       <r>   -20.4955     0.0000    46.0000 </r>
       <r>   -20.3909     0.0000    46.0000 </r>
       <r>   -20.2864     0.0000    46.0000 </r>
       <r>   -20.1819     0.0000    46.0000 </r>
       <r>   -20.0774     0.0000    46.0000 </r>
       <r>   -19.9729     0.0000    46.0000 </r>
       <r>   -19.8683    23.9038    48.4984 </r>
       <r>   -19.7638     0.0000    50.0000 </r>
       <r>   -19.6593     0.0156    50.0016 </r>
       <r>   -19.5548    10.7792    51.6600 </r>
       <r>   -19.4503     1.6649    51.9073 </r>
       <r>   -19.3458    19.9016    54.0801 </r>
       <r>   -19.2412     1.6642    54.3073 </r>
       <r>   -19.1367     2.1550    54.5919 </r>
       <r>   -19.0322     6.6973    56.0000 </r>
       <r>   -18.9277    15.0415    57.5721 </r>
       <r>   -18.8232    22.3247    60.0000 </r>
       <r>   -18.7187     0.0000    60.0000 </r>
       <r>   -18.6141     0.0000    60.0000 </r>
       <r>   -18.5096     0.0000    60.0000 </r>
       <r>   -18.4051     0.0000    60.0000 </r>
       <r>   -18.3006     0.0000    60.0000 </r>
       <r>   -18.1961     0.0000    60.0000 </r>
       <r>   -18.0915     0.0000    60.0000 </r>
       <r>   -17.9870     0.0000    60.0000 </r>
       <r>   -17.8825    19.0531    61.9914 </r>
       <r>   -17.7780    19.9292    66.0000 </r>
       <r>   -17.6735     0.0000    66.0000 </r>
       <r>   -17.5690     0.0000    66.0000 </r>
       <r>   -17.4644     0.0000    66.0000 </r>
       <r>   -17.3599     0.0000    66.0000 </r>
       <r>   -17.2554     3.4244    66.3579 </r>
       <r>   -17.1509    44.2045    71.4702 </r>
       <r>   -17.0464     0.0000    72.0000 </r>
       <r>   -16.9418     0.0000    72.0000 </r>
       <r>   -16.8373     0.0000    72.0000 </r>
       <r>   -16.7328     0.0000    72.0000 </r>
       <r>   -16.6283     0.0000    72.0000 </r>
       <r>   -16.5238     0.0000    72.0000 </r>
       <r>   -16.4193     0.0000    72.0000 </r>
       <r>   -16.3147     0.0000    72.0000 </r>
       <r>   -16.2102     0.0000    72.0000 </r>
       <r>   -16.1057    24.5075    74.5615 </r>
       <r>   -16.0012    16.1444    77.1207 </r>
       <r>   -15.8967     3.7769    77.8948 </r>
       <r>   -15.7921    38.1265    81.9849 </r>
       <r>   -15.6876    18.1845    83.9006 </r>
       <r>   -15.5831     0.0000    84.0000 </r>
       <r>   -15.4786    21.2546    86.2215 </r>
       <r>   -15.3741     1.9945    86.4751 </r>
       <r>   -15.2696    13.7137    88.0000 </r>
       <r>   -15.1650     0.0000    88.0000 </r>
       <r>   -15.0605    14.8481    89.5519 </r>
       <r>   -14.9560     2.2446    89.8679 </r>
       <r>   -14.8515    11.9189    92.2126 </r>
       <r>   -14.7470    15.9462    94.0000 </r>
       <r>   -14.6425     0.0000    94.0000 </r>
       <r>   -14.5379     0.0000    94.0000 </r>
       <r>   -14.4334    19.1355    96.0000 </r>
       <r>   -14.3289     0.0000    96.0000 </r>
       <r>   -14.2244     0.0000    96.0000 </r>
       <r>   -14.1199     0.0000    96.0000 </r>
       <r>   -14.0153    36.1153    99.7747 </r>
       <r>   -13.9108    14.1673   101.4807 </r>
       <r>   -13.8063     3.7348   101.9904 </r>
       <r>   -13.7018     0.0000   102.0000 </r>
       <r>   -13.5973    36.9842   105.8655 </r>
       <r>   -13.4928    23.9193   110.0000 </r>
       <r>   -13.3882     0.0000   110.0000 </r>
       <r>   -13.2837    19.0547   111.9916 </r>
       <r>   -13.1792     0.0000   112.0000 </r>
       <r>   -13.0747    19.1016   113.9965 </r>
       <r>   -12.9702     0.0000   114.0000 </r>
       <r>   -12.8656     0.0000   114.0000 </r>
       <r>   -12.7611     0.0000   114.0000 </r>
       <r>   -12.6566     4.4557   114.4657 </r>
       <r>   -12.5521    22.3822   117.4560 </r>
       <r>   -12.4476    22.9625   120.0000 </r>
       <r>   -12.3431     0.0000   120.0000 </r>
       <r>   -12.2385     0.0050   120.0005 </r>
       <r>   -12.1340     6.8557   122.0000 </r>
       <r>   -12.0295     0.0000   122.0000 </r>
       <r>   -11.9250     8.4301   122.8811 </r>
       <r>   -11.8205    43.2698   130.7891 </r>
       <r>   -11.7160    19.1354   136.0000 </r>
       <r>   -11.6114     0.0000   136.0000 </r>
       <r>   -11.5069     0.0275   136.0029 </r>
       <r>   -11.4024    38.2710   142.0000 </r>
       <r>   -11.2979     0.0000   142.0000 </r>
       <r>   -11.1934    57.4064   148.0000 </r>
       <r>   -11.0888     0.0000   148.0000 </r>
       <r>   -10.9843     0.0000   148.0000 </r>
       <r>   -10.8798    28.8543   151.0158 </r>
       <r>   -10.7753     0.0000   154.0000 </r>
       <r>   -10.6708    73.6831   161.7012 </r>
       <r>   -10.5663    38.2702   165.9999 </r>
       <r>   -10.4617     0.0000   166.0000 </r>
       <r>   -10.3572     0.0000   166.0000 </r>
       <r>   -10.2527     0.0000   166.0000 </r>
       <r>   -10.1482    20.7283   168.1665 </r>
       <r>   -10.0437    30.1503   173.5346 </r>
       <r>    -9.9391    38.2800   178.0009 </r>
       <r>    -9.8346    20.6371   180.8070 </r>
       <r>    -9.7301    31.3818   187.2800 </r>
       <r>    -9.6256     0.0000   190.0000 </r>
       <r>    -9.5211     0.0000   190.0000 </r>
       <r>    -9.4166     0.9565   190.1000 </r>
       <r>    -9.3120     2.2545   190.4690 </r>
       <r>    -9.2075    13.7137   192.0000 </r>
       <r>    -9.1030     0.6817   192.0713 </r>
       <r>    -8.9985    14.9439   194.3286 </r>
       <r>    -8.8940     3.8170   197.8823 </r>
       <r>    -8.7894    38.2572   201.9986 </r>
       <r>    -8.6849    22.1663   204.3168 </r>
       <r>    -8.5804    57.9821   210.5268 </r>
       <r>    -8.4759    17.5691   213.8363 </r>
       <r>    -8.3714     0.0000   214.0000 </r>
       <r>    -8.2669     0.0000   214.0000 </r>
       <r>    -8.1623     0.0926   214.0097 </r>
       <r>    -8.0578    17.0624   218.0000 </r>
       <r>    -7.9533    18.2946   219.9121 </r>
       <r>    -7.8488     0.0000   220.0000 </r>
       <r>    -7.7443     0.0000   220.0000 </r>
       <r>    -7.6398     7.6697   220.8016 </r>
       <r>    -7.5352     0.0000   226.0000 </r>
       <r>    -7.4307     0.0000   226.0000 </r>
       <r>    -7.3262     0.0000   226.0000 </r>
       <r>    -7.2217     0.0000   226.0000 </r>
       <r>    -7.1172     1.4796   226.1546 </r>
       <r>    -7.0126    33.6463   232.0000 </r>
       <r>    -6.9081     0.0000   232.0000 </r>
       <r>    -6.8036    61.5640   238.4345 </r>
       <r>    -6.6991    19.1342   242.0000 </r>
       <r>    -6.5946    38.2446   245.9972 </r>
       <r>    -6.4901     0.0000   246.0000 </r>
       <r>    -6.3855     0.0000   246.0000 </r>
       <r>    -6.2810     0.0000   246.0000 </r>
       <r>    -6.1765    19.1355   248.0000 </r>
       <r>    -6.0720    38.2640   251.9993 </r>
       <r>    -5.9675     3.2653   252.3413 </r>
       <r>    -5.8629    26.5489   255.3415 </r>
       <r>    -5.7584    22.1652   258.0000 </r>
       <r>    -5.6539     0.0000   258.0000 </r>
       <r>    -5.5494    18.5375   259.9375 </r>
       <r>    -5.4449    38.2709   264.0000 </r>
       <r>    -5.3404     0.0000   264.0000 </r>
       <r>    -5.2358     3.0225   264.3159 </r>
       <r>    -5.1313    21.8453   270.0000 </r>
       <r>    -5.0268     0.0000   270.0000 </r>
       <r>    -4.9223     0.0000   270.0000 </r>
       <r>    -4.8178     0.0000   270.0000 </r>
       <r>    -4.7133     0.0000   270.0000 </r>
       <r>    -4.6087     0.0000   270.0000 </r>
       <r>    -4.5042     0.0000   270.0000 </r>
       <r>    -4.3997     0.0000   270.0000 </r>
       <r>    -4.2952     0.0000   270.0000 </r>
       <r>    -4.1907     0.0000   270.0000 </r>
       <r>    -4.0861     0.0000   270.0000 </r>
       <r>    -3.9816     0.0000   270.0000 </r>
       <r>    -3.8771     0.0000   270.0000 </r>
       <r>    -3.7726     0.0000   270.0000 </r>
       <r>    -3.6681     0.0000   270.0000 </r>
       <r>    -3.5636     0.0000   270.0000 </r>
       <r>    -3.4590     0.0000   270.0000 </r>
       <r>    -3.3545     0.0000   270.0000 </r>
       <r>    -3.2500     0.0000   270.0000 </r>
       <r>    -3.1455     0.0000   270.0000 </r>
       <r>    -3.0410     0.0000   270.0000 </r>
       <r>    -2.9364     0.0000   270.0000 </r>
       <r>    -2.8319     0.0000   270.0000 </r>
       <r>    -2.7274     0.0000   270.0000 </r>
       <r>    -2.6229    30.5389   273.1919 </r>
       <r>    -2.5184    13.6698   275.4287 </r>
       <r>    -2.4139     2.3835   275.8158 </r>
       <r>    -2.3093     4.3044   278.0000 </r>
       <r>    -2.2048     0.0000   278.0000 </r>
       <r>    -2.1003     0.0000   278.0000 </r>
       <r>    -1.9958     1.4242   278.1489 </r>
       <r>    -1.8913     1.4275   278.3825 </r>
       <r>    -1.7867     3.4588   278.7948 </r>
       <r>    -1.6822     7.7055   280.1220 </r>
       <r>    -1.5777    11.8501   281.6052 </r>
       <r>    -1.4732    19.1374   286.0002 </r>
       <r>    -1.3687    12.3188   287.5709 </r>
       <r>    -1.2642     1.1510   287.7370 </r>
       <r>    -1.1596     1.2545   287.8978 </r>
       <r>    -1.0551     0.3189   288.0000 </r>
       <r>    -0.9506    16.9083   289.7672 </r>
       <r>    -0.8461     1.2447   290.2301 </r>
       <r>    -0.7416     0.9646   290.3675 </r>
       <r>    -0.6371     1.3166   290.5376 </r>
       <r>    -0.5325    13.2351   292.0000 </r>
       <r>    -0.4280    18.2685   293.9094 </r>
       <r>    -0.3235    11.9820   295.4523 </r>
       <r>    -0.2190    19.7845   297.6012 </r>
       <r>    -0.1145    22.2857   300.0293 </r>
       <r>    -0.0099    16.2647   302.0000 </r>
       <r>     0.0946     0.0000   302.0000 </r>
       <r>     0.1991    21.6780   304.2657 </r>
       <r>     0.3036    11.6384   306.3831 </r>
       <r>     0.4081    44.7671   311.9456 </r>
       <r>     0.5126    33.7093   315.6232 </r>
       <r>     0.6172    32.8153   320.2132 </r>
       <r>     0.7217    37.3073   326.0826 </r>
       <r>     0.8262    46.8621   332.6980 </r>
       <r>     0.9307    38.1565   337.7214 </r>
       <r>     1.0352    37.3345   344.1355 </r>
       <r>     1.1398    37.0954   351.3772 </r>
       <r>     1.2443     2.7108   352.0000 </r>
       <r>     1.3488     0.0000   352.0000 </r>
       <r>     1.4533     0.0000   352.0000 </r>
       <r>     1.5578     0.0000   352.0000 </r>
       <r>     1.6623     0.0000   352.0000 </r>
       <r>     1.7669     0.0000   352.0000 </r>
       <r>     1.8714     0.0000   352.0000 </r>
       <r>     1.9759     0.0000   352.0000 </r>
       <r>     2.0804     0.0000   352.0000 </r>
       <r>     2.1849     0.0000   352.0000 </r>
       <r>     2.2895     0.0000   352.0000 </r>
       <r>     2.3940     0.0000   352.0000 </r>
       <r>     2.4985     0.0000   352.0000 </r>
       <r>     2.6030     0.0000   352.0000 </r>
      </set>
     </set>
    </array>
   </total>
  </dos>
 </calculation>
 <structure name="finalpos" >
  <crystal>
   <varray name="basis" >
    <v>      22.38082777      -0.03564781       0.00000000 </v>
    <v>     -11.22127928      19.34280993       0.00000000 </v>
    <v>       0.00000000       0.00000000      20.00000000 </v>
   </varray>
   <i name="volume">   8650.16167364 </i>
   <varray name="rec_basis" >
    <v>       0.04472242       0.02594467       0.00000000 </v>
    <v>       0.00008242       0.05174661       0.00000000 </v>
    <v>       0.00000000       0.00000000       0.05000000 </v>
   </varray>
  </crystal>
  <varray name="positions" >
   <v>       0.32895700       0.82340342       0.46352694 </v>
   <v>       0.17727061       0.49684925       0.46600178 </v>
   <v>       0.50409037       0.67292520       0.46554046 </v>
   <v>       0.68409537       0.17693942       0.51672743 </v>
   <v>       0.82647437       0.50282053       0.51455473 </v>
   <v>       0.50010429       0.31743331       0.51596419 </v>
   <v>       0.44793198       0.06124305       0.42574489 </v>
   <v>       0.93967602       0.37922950       0.42725218 </v>
   <v>       0.62172499       0.55425762       0.42675042 </v>
   <v>       0.26630705       0.61431007       0.48185427 </v>
   <v>       0.31662000       0.59448304       0.48198981 </v>
   <v>       0.38690376       0.64416862       0.48188937 </v>
   <v>       0.40697361       0.71454622       0.48119101 </v>
   <v>       0.28714815       0.68458035       0.48108331 </v>
   <v>       0.19209581       0.55655449       0.47877993 </v>
   <v>       0.44447394       0.62783399       0.47868687 </v>
   <v>       0.73968714       0.38519030       0.49254789 </v>
   <v>       0.68688545       0.40153600       0.49286782 </v>
   <v>       0.61746692       0.34914418       0.49291334 </v>
   <v>       0.60090305       0.27978290       0.49336526 </v>
   <v>       0.72241873       0.31581204       0.49313996 </v>
   <v>       0.81274181       0.44457996       0.49578979 </v>
   <v>       0.55804703       0.36236089       0.49664104 </v>
   <v>       0.47732685       0.02725687       0.45376248 </v>
   <v>       0.54499091       0.06846637       0.47995889 </v>
   <v>       0.37862959       0.01877370       0.39936262 </v>
   <v>       0.97424670       0.44291167       0.45507549 </v>
   <v>       0.93371637       0.47024673       0.48044529 </v>
   <v>       0.98139714       0.35142526       0.40170728 </v>
   <v>       0.55828185       0.52471861       0.45500757 </v>
   <v>       0.53151995       0.45694781       0.48098474 </v>
   <v>       0.64858399       0.62339143       0.39994398 </v>
   <v>       0.35752822       0.73513625       0.48097862 </v>
   <v>       0.37403316       0.80921819       0.47690924 </v>
   <v>       0.65306479       0.26280278       0.49305910 </v>
   <v>       0.63957017       0.18997414       0.49679632 </v>
   <v>       0.57426569       0.03170113       0.50782039 </v>
   <v>       0.47587104       0.92971459       0.48519717 </v>
   <v>       0.97104187       0.53659959       0.50806631 </v>
   <v>       0.07226278       0.53885179       0.48681548 </v>
   <v>       0.46533040       0.42740436       0.50890876 </v>
   <v>       0.46229803       0.52591525       0.48698756 </v>
   <v>       0.44312501       0.95901846       0.45584952 </v>
   <v>       0.57467635       0.14020082       0.47654423 </v>
   <v>       0.04238713       0.47644909       0.45770767 </v>
   <v>       0.86199789       0.42856301       0.47669201 </v>
   <v>       0.52441517       0.55880128       0.45744124 </v>
   <v>       0.57352160       0.42751251       0.47721277 </v>
   <v>       0.53979035       0.96221325       0.51086914 </v>
   <v>       0.44263499       0.85778120       0.48939382 </v>
   <v>       0.04043256       0.57109636       0.51173911 </v>
   <v>       0.14414447       0.57704363       0.49141074 </v>
   <v>       0.43051240       0.46182106       0.51238055 </v>
   <v>       0.42399822       0.55927310       0.49157621 </v>
   <v>       0.46246845       0.75107723       0.47831405 </v>
   <v>       0.25080443       0.70354010       0.47801492 </v>
   <v>       0.29745048       0.53895599       0.47966261 </v>
   <v>       0.54612679       0.24079319       0.49688774 </v>
   <v>       0.76118762       0.29997351       0.49654480 </v>
   <v>       0.70291920       0.45635089       0.49595031 </v>
   <v>       0.34366995       0.98471261       0.43843430 </v>
   <v>       0.36345530       0.05566002       0.38208745 </v>
   <v>       0.37898090       0.98680228       0.35790033 </v>
   <v>       0.54331111       0.15610375       0.45636169 </v>
   <v>       0.01472407       0.35014115       0.44122865 </v>
   <v>       0.94404725       0.29927303       0.38442766 </v>
   <v>       0.01404912       0.38351786       0.36037349 </v>
   <v>       0.84567105       0.38090895       0.45694108 </v>
   <v>       0.64988345       0.65863928       0.43881513 </v>
   <v>       0.70061506       0.63864483       0.38229605 </v>
   <v>       0.61585675       0.62251828       0.35865062 </v>
   <v>       0.62097153       0.45921898       0.45718557 </v>
   <v>       0.62644757       0.05915900       0.52815037 </v>
   <v>       0.47400115       0.84118836       0.50806057 </v>
   <v>       0.94410610       0.56201043       0.52765717 </v>
   <v>       0.16133208       0.62544571       0.50954451 </v>
   <v>       0.44030469       0.37503637       0.52888118 </v>
   <v>       0.37578585       0.52789104       0.51009271 </v>
  </varray>
 </structure>
</modeling>
