<?xml version="1.0" encoding="ISO-8859-1"?>
<modeling>
 <generator>
  <i name="program" type="string">vasp </i>
  <i name="version" type="string">5.4.4.18Apr17-6-g9f103f2a35  </i>
  <i name="subversion" type="string">(build Jun 07 2020 16:50:00) complex            parallel </i>
  <i name="platform" type="string">LinuxIFC </i>
  <i name="date" type="string">2023 02 17 </i>
  <i name="time" type="string">04:54:16 </i>
 </generator>
 <incar>
  <i type="string" name="SYSTEM">Simulation for cell shape cell volume r</i>
  <i type="int" name="ISTART">     1</i>
  <i type="string" name="PREC">high</i>
  <i type="string" name="ALGO">48</i>
  <i type="int" name="ICHARG">    11</i>
  <i type="int" name="NELM">   200</i>
  <i type="int" name="IBRION">    -1</i>
  <i name="EDIFF">      0.00001000</i>
  <i name="EDIFFG">     -0.01000000</i>
  <i type="int" name="NSW">     0</i>
  <i type="int" name="ISIF">     2</i>
  <i name="ENCUT">    500.00000000</i>
  <i name="POTIM">      0.30000000</i>
  <i type="string" name="LREAL">A</i>
  <i type="int" name="ISMEAR">     0</i>
  <i name="SIGMA">      0.01000000</i>
  <i type="int" name="NWRITE">     0</i>
  <i type="logical" name="LWAVE"> F  </i>
  <i type="logical" name="LCHARG"> F  </i>
  <v type="int" name="KPOINT_BSE">    -1     0     0     0</v>
  <i type="int" name="NELM">   200</i>
  <i type="string" name="GGA">PE</i>
 </incar>
 <structure name="primitive_cell" >
  <crystal>
   <varray name="basis" >
    <v>      29.26889189       0.00000000       0.00000000 </v>
    <v>     -14.63444594      25.34760391       0.00000000 </v>
    <v>       0.00000000       0.00000000      20.00000000 </v>
   </varray>
   <i name="volume">  14837.92557170 </i>
   <varray name="rec_basis" >
    <v>       0.03416597       0.01972573       0.00000000 </v>
    <v>       0.00000000       0.03945146       0.00000000 </v>
    <v>       0.00000000       0.00000000       0.05000000 </v>
   </varray>
  </crystal>
  <varray name="positions" >
   <v>       0.04454093      -0.47772954       0.39673336 </v>
   <v>       0.02463930      -0.48768035       0.44513757 </v>
   <v>      -0.02839077       0.48580462       0.44492570 </v>
   <v>       0.05329323      -0.47335338      -0.49505880 </v>
   <v>       0.11207551      -0.44396225      -0.49552716 </v>
   <v>      -0.05319947       0.47340026      -0.49641606 </v>
   <v>       0.02901078      -0.48549461      -0.43535741 </v>
   <v>       0.14008442      -0.38863477      -0.49611250 </v>
   <v>       0.14008442      -0.47128081      -0.49611250 </v>
   <v>       0.11846505      -0.36720862      -0.49584993 </v>
   <v>       0.11846505       0.48567367      -0.49584993 </v>
   <v>      -0.02401024       0.48799488      -0.43534537 </v>
   <v>      -0.11200746       0.44399627      -0.49597417 </v>
   <v>       0.19500358      -0.36112129      -0.49680914 </v>
   <v>       0.19500358      -0.44387514      -0.49680914 </v>
   <v>       0.22308813      -0.38845594      -0.49708213 </v>
   <v>      -0.11849795      -0.48567165      -0.49600201 </v>
   <v>      -0.11849795       0.36717370      -0.49600201 </v>
   <v>      -0.04854210       0.47572895      -0.37466143 </v>
   <v>      -0.14011514       0.38860648      -0.49563633 </v>
   <v>      -0.14011514       0.47127839      -0.49563633 </v>
   <v>       0.21697684      -0.31814884      -0.49705984 </v>
   <v>       0.21697684      -0.46487432      -0.49705984 </v>
   <v>      -0.02607917       0.48696042      -0.33286901 </v>
   <v>      -0.08827285       0.45586358      -0.37103680 </v>
   <v>       0.28148427      -0.35925787      -0.49744724 </v>
   <v>      -0.19504154       0.44386751      -0.49584000 </v>
   <v>      -0.19504154       0.36109095      -0.49584000 </v>
   <v>       0.30622741      -0.30622741      -0.49748732 </v>
   <v>       0.30622741      -0.38754518      -0.49748732 </v>
   <v>      -0.22310567       0.38844717      -0.49599230 </v>
   <v>      -0.21703834       0.46484668      -0.49622731 </v>
   <v>      -0.21703834       0.31811498      -0.49622731 </v>
   <v>       0.31814884      -0.21697684      -0.49705984 </v>
   <v>       0.31814884      -0.46487432      -0.49705984 </v>
   <v>       0.35925787      -0.28148427      -0.49744724 </v>
   <v>       0.35925787      -0.35925787      -0.49744724 </v>
   <v>      -0.28149427       0.35925287      -0.49636455 </v>
   <v>       0.38754518      -0.30622741      -0.49748732 </v>
   <v>       0.36112129      -0.19500358      -0.49680914 </v>
   <v>       0.36112129      -0.44387514      -0.49680914 </v>
   <v>      -0.30623184       0.38753632      -0.49638460 </v>
   <v>      -0.30623184       0.30623184      -0.49638460 </v>
   <v>       0.38845594      -0.22308813      -0.49708213 </v>
   <v>       0.38845594      -0.38845594      -0.49708213 </v>
   <v>      -0.31811498       0.46484668      -0.49622731 </v>
   <v>      -0.31811498       0.21703834      -0.49622731 </v>
   <v>       0.38863477      -0.14008442      -0.49611250 </v>
   <v>       0.38863477      -0.47128081      -0.49611250 </v>
   <v>       0.36720862      -0.11846505      -0.49584993 </v>
   <v>       0.36720862       0.48567367      -0.49584993 </v>
   <v>      -0.35925287       0.28149427      -0.49636455 </v>
   <v>      -0.35925287       0.35925287      -0.49636455 </v>
   <v>       0.44387514      -0.19500358      -0.49680914 </v>
   <v>       0.44387514      -0.36112129      -0.49680914 </v>
   <v>       0.46487432      -0.21697684      -0.49705984 </v>
   <v>       0.46487432      -0.31814884      -0.49705984 </v>
   <v>      -0.36109095       0.44386751      -0.49584000 </v>
   <v>      -0.36109095       0.19504154      -0.49584000 </v>
   <v>      -0.38753632       0.30623184      -0.49638460 </v>
   <v>       0.44396225      -0.11207551      -0.49552716 </v>
   <v>       0.44396225      -0.44396225      -0.49552716 </v>
   <v>      -0.38844717       0.22310567      -0.49599230 </v>
   <v>      -0.38844717       0.38844717      -0.49599230 </v>
   <v>       0.47128081      -0.14008442      -0.49611250 </v>
   <v>       0.47128081      -0.38863477      -0.49611250 </v>
   <v>      -0.36717370       0.11849795      -0.49600201 </v>
   <v>      -0.36717370      -0.48567165      -0.49600201 </v>
   <v>      -0.38860648       0.14011514      -0.49563633 </v>
   <v>      -0.38860648       0.47127839      -0.49563633 </v>
   <v>      -0.48567367      -0.11846505      -0.49584993 </v>
   <v>      -0.48567367      -0.36720862      -0.49584993 </v>
   <v>       0.47335338      -0.47335338      -0.49505880 </v>
   <v>       0.47335338      -0.05329323      -0.49505880 </v>
   <v>       0.47772954      -0.04454093       0.39673336 </v>
   <v>       0.47772954      -0.47772954       0.39673336 </v>
   <v>      -0.44386751       0.36109095      -0.49584000 </v>
   <v>      -0.44386751       0.19504154      -0.49584000 </v>
   <v>       0.48768035      -0.02463930       0.44513757 </v>
   <v>       0.48768035      -0.48768035       0.44513757 </v>
   <v>      -0.46484668       0.31811498      -0.49622731 </v>
   <v>      -0.46484668       0.21703834      -0.49622731 </v>
   <v>       0.48549461      -0.02901078      -0.43535741 </v>
   <v>       0.48549461      -0.48549461      -0.43535741 </v>
   <v>      -0.44399627       0.44399627      -0.49597417 </v>
   <v>      -0.44399627       0.11200746      -0.49597417 </v>
   <v>      -0.47127839       0.14011514      -0.49563633 </v>
   <v>      -0.47127839       0.38860648      -0.49563633 </v>
   <v>      -0.48580462       0.02839077       0.44492570 </v>
   <v>      -0.48580462       0.48580462       0.44492570 </v>
   <v>      -0.45586358       0.45586358      -0.37103680 </v>
   <v>      -0.45586358       0.08827285      -0.37103680 </v>
   <v>      -0.48799488       0.02401024      -0.43534537 </v>
   <v>      -0.48799488       0.48799488      -0.43534537 </v>
   <v>      -0.47340026       0.05319947      -0.49641606 </v>
   <v>      -0.47340026       0.47340026      -0.49641606 </v>
   <v>       0.48567165       0.36717370      -0.49600201 </v>
   <v>       0.48567165       0.11849795      -0.49600201 </v>
   <v>      -0.48696042       0.48696042      -0.33286901 </v>
   <v>      -0.48696042       0.02607917      -0.33286901 </v>
   <v>      -0.47572895       0.47572895      -0.37466143 </v>
   <v>      -0.47572895       0.04854210      -0.37466143 </v>
  </varray>
 </structure>
 <varray name="primitive_index" >
  <v type="int" >        1 </v>
  <v type="int" >       49 </v>
  <v type="int" >       48 </v>
  <v type="int" >       50 </v>
  <v type="int" >       69 </v>
  <v type="int" >       99 </v>
  <v type="int" >       34 </v>
  <v type="int" >       68 </v>
  <v type="int" >       70 </v>
  <v type="int" >        7 </v>
  <v type="int" >        9 </v>
  <v type="int" >      100 </v>
  <v type="int" >       90 </v>
  <v type="int" >       67 </v>
  <v type="int" >       71 </v>
  <v type="int" >       66 </v>
  <v type="int" >       21 </v>
  <v type="int" >       19 </v>
  <v type="int" >       45 </v>
  <v type="int" >       89 </v>
  <v type="int" >       91 </v>
  <v type="int" >        6 </v>
  <v type="int" >        8 </v>
  <v type="int" >       31 </v>
  <v type="int" >       30 </v>
  <v type="int" >       53 </v>
  <v type="int" >       92 </v>
  <v type="int" >       88 </v>
  <v type="int" >       37 </v>
  <v type="int" >       36 </v>
  <v type="int" >       87 </v>
  <v type="int" >       20 </v>
  <v type="int" >       18 </v>
  <v type="int" >        5 </v>
  <v type="int" >       10 </v>
  <v type="int" >       51 </v>
  <v type="int" >       52 </v>
  <v type="int" >       74 </v>
  <v type="int" >       35 </v>
  <v type="int" >       65 </v>
  <v type="int" >       59 </v>
  <v type="int" >       39 </v>
  <v type="int" >       40 </v>
  <v type="int" >       60 </v>
  <v type="int" >       54 </v>
  <v type="int" >       22 </v>
  <v type="int" >       17 </v>
  <v type="int" >       64 </v>
  <v type="int" >       58 </v>
  <v type="int" >        4 </v>
  <v type="int" >       11 </v>
  <v type="int" >       72 </v>
  <v type="int" >       73 </v>
  <v type="int" >       61 </v>
  <v type="int" >       55 </v>
  <v type="int" >        3 </v>
  <v type="int" >       13 </v>
  <v type="int" >       80 </v>
  <v type="int" >       86 </v>
  <v type="int" >       38 </v>
  <v type="int" >       63 </v>
  <v type="int" >       57 </v>
  <v type="int" >       81 </v>
  <v type="int" >       75 </v>
  <v type="int" >       62 </v>
  <v type="int" >       56 </v>
  <v type="int" >       16 </v>
  <v type="int" >       23 </v>
  <v type="int" >       85 </v>
  <v type="int" >       79 </v>
  <v type="int" >        2 </v>
  <v type="int" >       12 </v>
  <v type="int" >       94 </v>
  <v type="int" >       97 </v>
  <v type="int" >       33 </v>
  <v type="int" >       32 </v>
  <v type="int" >       76 </v>
  <v type="int" >       82 </v>
  <v type="int" >      102 </v>
  <v type="int" >      101 </v>
  <v type="int" >       25 </v>
  <v type="int" >       15 </v>
  <v type="int" >       43 </v>
  <v type="int" >       41 </v>
  <v type="int" >       78 </v>
  <v type="int" >       84 </v>
  <v type="int" >       83 </v>
  <v type="int" >       77 </v>
  <v type="int" >       47 </v>
  <v type="int" >       46 </v>
  <v type="int" >       26 </v>
  <v type="int" >       28 </v>
  <v type="int" >       98 </v>
  <v type="int" >       95 </v>
  <v type="int" >       96 </v>
  <v type="int" >       93 </v>
  <v type="int" >       24 </v>
  <v type="int" >       14 </v>
  <v type="int" >       27 </v>
  <v type="int" >       29 </v>
  <v type="int" >       42 </v>
  <v type="int" >       44 </v>
 </varray>
 <kpoints>
  <generation param="listgenerated">
   <i name="divisions" type="int">      20 </i>
   <v>       0.00000000       0.00000000       0.00000000 </v>
   <v>       0.50000000       0.00000000       0.00000000 </v>
   <v>       0.33333333       0.33333333       0.00000000 </v>
   <v>       0.00000000       0.00000000       0.00000000 </v>
  </generation>
  <varray name="kpointlist" >
   <v>       0.00000000       0.00000000       0.00000000 </v>
   <v>       0.02631579       0.00000000       0.00000000 </v>
   <v>       0.05263158       0.00000000       0.00000000 </v>
   <v>       0.07894737       0.00000000       0.00000000 </v>
   <v>       0.10526316       0.00000000       0.00000000 </v>
   <v>       0.13157895       0.00000000       0.00000000 </v>
   <v>       0.15789474       0.00000000       0.00000000 </v>
   <v>       0.18421053       0.00000000       0.00000000 </v>
   <v>       0.21052632       0.00000000       0.00000000 </v>
   <v>       0.23684211       0.00000000       0.00000000 </v>
   <v>       0.26315789       0.00000000       0.00000000 </v>
   <v>       0.28947368       0.00000000       0.00000000 </v>
   <v>       0.31578947       0.00000000       0.00000000 </v>
   <v>       0.34210526       0.00000000       0.00000000 </v>
   <v>       0.36842105       0.00000000       0.00000000 </v>
   <v>       0.39473684       0.00000000       0.00000000 </v>
   <v>       0.42105263       0.00000000       0.00000000 </v>
   <v>       0.44736842       0.00000000       0.00000000 </v>
   <v>       0.47368421       0.00000000       0.00000000 </v>
   <v>       0.50000000       0.00000000       0.00000000 </v>
   <v>       0.50000000       0.00000000       0.00000000 </v>
   <v>       0.49122807       0.01754386       0.00000000 </v>
   <v>       0.48245614       0.03508772       0.00000000 </v>
   <v>       0.47368421       0.05263158       0.00000000 </v>
   <v>       0.46491228       0.07017544       0.00000000 </v>
   <v>       0.45614035       0.08771930       0.00000000 </v>
   <v>       0.44736842       0.10526316       0.00000000 </v>
   <v>       0.43859649       0.12280702       0.00000000 </v>
   <v>       0.42982456       0.14035088       0.00000000 </v>
   <v>       0.42105263       0.15789474       0.00000000 </v>
   <v>       0.41228070       0.17543860       0.00000000 </v>
   <v>       0.40350877       0.19298246       0.00000000 </v>
   <v>       0.39473684       0.21052632       0.00000000 </v>
   <v>       0.38596491       0.22807018       0.00000000 </v>
   <v>       0.37719298       0.24561404       0.00000000 </v>
   <v>       0.36842105       0.26315789       0.00000000 </v>
   <v>       0.35964912       0.28070175       0.00000000 </v>
   <v>       0.35087719       0.29824561       0.00000000 </v>
   <v>       0.34210526       0.31578947       0.00000000 </v>
   <v>       0.33333333       0.33333333       0.00000000 </v>
   <v>       0.33333333       0.33333333       0.00000000 </v>
   <v>       0.31578947       0.31578947       0.00000000 </v>
   <v>       0.29824561       0.29824561       0.00000000 </v>
   <v>       0.28070175       0.28070175       0.00000000 </v>
   <v>       0.26315789       0.26315789       0.00000000 </v>
   <v>       0.24561404       0.24561404       0.00000000 </v>
   <v>       0.22807018       0.22807018       0.00000000 </v>
   <v>       0.21052632       0.21052632       0.00000000 </v>
   <v>       0.19298246       0.19298246       0.00000000 </v>
   <v>       0.17543860       0.17543860       0.00000000 </v>
   <v>       0.15789474       0.15789474       0.00000000 </v>
   <v>       0.14035088       0.14035088       0.00000000 </v>
   <v>       0.12280702       0.12280702       0.00000000 </v>
   <v>       0.10526316       0.10526316       0.00000000 </v>
   <v>       0.08771930       0.08771930       0.00000000 </v>
   <v>       0.07017544       0.07017544       0.00000000 </v>
   <v>       0.05263158       0.05263158       0.00000000 </v>
   <v>       0.03508772       0.03508772       0.00000000 </v>
   <v>       0.01754386       0.01754386       0.00000000 </v>
   <v>       0.00000000       0.00000000       0.00000000 </v>
  </varray>
  <varray name="weights" >
   <v>       0.01666667 </v>
   <v>       0.01666667 </v>
   <v>       0.01666667 </v>
   <v>       0.01666667 </v>
   <v>       0.01666667 </v>
   <v>       0.01666667 </v>
   <v>       0.01666667 </v>
   <v>       0.01666667 </v>
   <v>       0.01666667 </v>
   <v>       0.01666667 </v>
   <v>       0.01666667 </v>
   <v>       0.01666667 </v>
   <v>       0.01666667 </v>
   <v>       0.01666667 </v>
   <v>       0.01666667 </v>
   <v>       0.01666667 </v>
   <v>       0.01666667 </v>
   <v>       0.01666667 </v>
   <v>       0.01666667 </v>
   <v>       0.01666667 </v>
   <v>       0.01666667 </v>
   <v>       0.01666667 </v>
   <v>       0.01666667 </v>
   <v>       0.01666667 </v>
   <v>       0.01666667 </v>
   <v>       0.01666667 </v>
   <v>       0.01666667 </v>
   <v>       0.01666667 </v>
   <v>       0.01666667 </v>
   <v>       0.01666667 </v>
   <v>       0.01666667 </v>
   <v>       0.01666667 </v>
   <v>       0.01666667 </v>
   <v>       0.01666667 </v>
   <v>       0.01666667 </v>
   <v>       0.01666667 </v>
   <v>       0.01666667 </v>
   <v>       0.01666667 </v>
   <v>       0.01666667 </v>
   <v>       0.01666667 </v>
   <v>       0.01666667 </v>
   <v>       0.01666667 </v>
   <v>       0.01666667 </v>
   <v>       0.01666667 </v>
   <v>       0.01666667 </v>
   <v>       0.01666667 </v>
   <v>       0.01666667 </v>
   <v>       0.01666667 </v>
   <v>       0.01666667 </v>
   <v>       0.01666667 </v>
   <v>       0.01666667 </v>
   <v>       0.01666667 </v>
   <v>       0.01666667 </v>
   <v>       0.01666667 </v>
   <v>       0.01666667 </v>
   <v>       0.01666667 </v>
   <v>       0.01666667 </v>
   <v>       0.01666667 </v>
   <v>       0.01666667 </v>
   <v>       0.01666667 </v>
  </varray>
 </kpoints>
 <parameters>
  <separator name="general" >
   <i type="string" name="SYSTEM">Simulation for cell shape cell volume r</i>
   <i type="logical" name="LCOMPAT"> F  </i>
  </separator>
  <separator name="electronic" >
   <i type="string" name="PREC">high</i>
   <i name="ENMAX">    500.00000000</i>
   <i name="ENAUG">    644.87300000</i>
   <i name="EDIFF">      0.00001000</i>
   <i type="int" name="IALGO">    38</i>
   <i type="int" name="IWAVPR">    10</i>
   <i type="int" name="NBANDS">   224</i>
   <i name="NELECT">    324.00000000</i>
   <i type="int" name="TURBO">     0</i>
   <i type="int" name="IRESTART">     0</i>
   <i type="int" name="NREBOOT">     0</i>
   <i type="int" name="NMIN">     0</i>
   <i name="EREF">      0.00000000</i>
   <separator name="electronic smearing" >
    <i type="int" name="ISMEAR">     0</i>
    <i name="SIGMA">      0.01000000</i>
    <i name="KSPACING">      0.50000000</i>
    <i type="logical" name="KGAMMA"> T  </i>
   </separator>
   <separator name="electronic projectors" >
    <i type="logical" name="LREAL"> T  </i>
    <v name="ROPT">     -0.00040000     -0.00040000     -0.00040000</v>
    <i type="int" name="LMAXPAW">  -100</i>
    <i type="int" name="LMAXMIX">     2</i>
    <i type="logical" name="NLSPLINE"> F  </i>
   </separator>
   <separator name="electronic startup" >
    <i type="int" name="ISTART">     1</i>
    <i type="int" name="ICHARG">    11</i>
    <i type="int" name="INIWAV">     1</i>
   </separator>
   <separator name="electronic spin" >
    <i type="int" name="ISPIN">     1</i>
    <i type="logical" name="LNONCOLLINEAR"> F  </i>
    <v name="MAGMOM">      1.00000000      1.00000000      1.00000000      1.00000000      1.00000000      1.00000000      1.00000000      1.00000000      1.00000000      1.00000000      1.00000000      1.00000000      1.00000000      1.00000000      1.00000000      1.00000000      1.00000000      1.00000000      1.00000000      1.00000000
      1.00000000      1.00000000      1.00000000      1.00000000      1.00000000      1.00000000      1.00000000      1.00000000      1.00000000      1.00000000      1.00000000      1.00000000      1.00000000      1.00000000      1.00000000      1.00000000      1.00000000      1.00000000      1.00000000      1.00000000
      1.00000000      1.00000000      1.00000000      1.00000000      1.00000000      1.00000000      1.00000000      1.00000000      1.00000000      1.00000000      1.00000000      1.00000000      1.00000000      1.00000000      1.00000000      1.00000000      1.00000000      1.00000000      1.00000000      1.00000000
      1.00000000      1.00000000      1.00000000      1.00000000      1.00000000      1.00000000      1.00000000      1.00000000      1.00000000      1.00000000      1.00000000      1.00000000      1.00000000      1.00000000      1.00000000      1.00000000      1.00000000      1.00000000      1.00000000      1.00000000
      1.00000000      1.00000000      1.00000000      1.00000000      1.00000000      1.00000000      1.00000000      1.00000000      1.00000000      1.00000000      1.00000000      1.00000000      1.00000000      1.00000000      1.00000000      1.00000000      1.00000000      1.00000000      1.00000000      1.00000000
      1.00000000      1.00000000</v>
    <i name="NUPDOWN">     -1.00000000</i>
    <i type="logical" name="LSORBIT"> F  </i>
    <v name="SAXIS">      0.00000000      0.00000000      1.00000000</v>
    <i type="logical" name="LSPIRAL"> F  </i>
    <v name="QSPIRAL">      0.00000000      0.00000000      0.00000000</v>
    <i type="logical" name="LZEROZ"> F  </i>
   </separator>
   <separator name="electronic exchange-correlation" >
    <i type="logical" name="LASPH"> F  </i>
    <i type="logical" name="LMETAGGA"> F  </i>
   </separator>
   <separator name="electronic convergence" >
    <i type="int" name="NELM">   200</i>
    <i type="int" name="NELMDL">     0</i>
    <i type="int" name="NELMIN">     2</i>
    <i name="ENINI">    500.00000000</i>
    <separator name="electronic convergence detail" >
     <i type="logical" name="LDIAG"> T  </i>
     <i type="logical" name="LSUBROT"> F  </i>
     <i name="WEIMIN">      0.00000000</i>
     <i name="EBREAK">      0.00000001</i>
     <i name="DEPER">      0.30000000</i>
     <i type="int" name="NRMM">     4</i>
     <i name="TIME">      0.40000000</i>
    </separator>
   </separator>
   <separator name="electronic mixer" >
    <i name="AMIX">      0.40000000</i>
    <i name="BMIX">      1.00000000</i>
    <i name="AMIN">      0.10000000</i>
    <i name="AMIX_MAG">      1.60000000</i>
    <i name="BMIX_MAG">      1.00000000</i>
    <separator name="electronic mixer details" >
     <i type="int" name="IMIX">     4</i>
     <i type="logical" name="MIXFIRST"> F  </i>
     <i type="int" name="MAXMIX">   -45</i>
     <i name="WC">    100.00000000</i>
     <i type="int" name="INIMIX">     1</i>
     <i type="int" name="MIXPRE">     1</i>
     <i type="int" name="MREMOVE">     5</i>
    </separator>
   </separator>
   <separator name="electronic dipolcorrection" >
    <i type="logical" name="LDIPOL"> F  </i>
    <i type="logical" name="LMONO"> F  </i>
    <i type="int" name="IDIPOL">     0</i>
    <i name="EPSILON">      1.00000000</i>
    <v name="DIPOL">   -100.00000000   -100.00000000   -100.00000000</v>
    <i name="EFIELD">      0.00000000</i>
   </separator>
  </separator>
  <separator name="grids" >
   <i type="int" name="NGX">   216</i>
   <i type="int" name="NGY">   216</i>
   <i type="int" name="NGZ">   150</i>
   <i type="int" name="NGXF">   324</i>
   <i type="int" name="NGYF">   324</i>
   <i type="int" name="NGZF">   224</i>
   <i type="logical" name="ADDGRID"> F  </i>
  </separator>
  <separator name="ionic" >
   <i type="int" name="NSW">     0</i>
   <i type="int" name="IBRION">    -1</i>
   <i type="int" name="MDALGO">     0</i>
   <i type="int" name="ISIF">     2</i>
   <i name="PSTRESS">      0.00000000</i>
   <i name="EDIFFG">     -0.01000000</i>
   <i type="int" name="NFREE">     0</i>
   <i name="POTIM">      0.30000000</i>
   <i name="SMASS">     -3.00000000</i>
   <i name="SCALEE">      1.00000000</i>
  </separator>
  <separator name="ionic md" >
   <i name="TEBEG">      0.00010000</i>
   <i name="TEEND">      0.00010000</i>
   <i type="int" name="NBLOCK">     1</i>
   <i type="int" name="KBLOCK">     1</i>
   <i type="int" name="NPACO">   256</i>
   <i name="APACO">     16.00000000</i>
  </separator>
  <separator name="symmetry" >
   <i type="int" name="ISYM">     2</i>
   <i name="SYMPREC">      0.00001000</i>
  </separator>
  <separator name="dos" >
   <i type="int" name="LORBIT">     0</i>
   <v name="RWIGS">     -1.00000000     -1.00000000     -1.00000000</v>
   <i type="int" name="NEDOS">   301</i>
   <i name="EMIN">     10.00000000</i>
   <i name="EMAX">    -10.00000000</i>
   <i name="EFERMI">      0.00000000</i>
  </separator>
  <separator name="writing" >
   <i type="int" name="NWRITE">     0</i>
   <i type="logical" name="LWAVE"> F  </i>
   <i type="logical" name="LDOWNSAMPLE"> F  </i>
   <i type="logical" name="LCHARG"> F  </i>
   <i type="logical" name="LPARD"> F  </i>
   <i type="logical" name="LVTOT"> F  </i>
   <i type="logical" name="LVHAR"> F  </i>
   <i type="logical" name="LELF"> F  </i>
   <i type="logical" name="LOPTICS"> F  </i>
   <v name="STM">      0.00000000      0.00000000      0.00000000      0.00000000      0.00000000      0.00000000      0.00000000</v>
  </separator>
  <separator name="performance" >
   <i type="int" name="NPAR">    16</i>
   <i type="int" name="NSIM">     4</i>
   <i type="int" name="NBLK">    -1</i>
   <i type="logical" name="LPLANE"> T  </i>
   <i type="logical" name="LSCALAPACK"> T  </i>
   <i type="logical" name="LSCAAWARE"> F  </i>
   <i type="logical" name="LSCALU"> F  </i>
   <i type="logical" name="LASYNC"> F  </i>
   <i type="logical" name="LORBITALREAL"> F  </i>
  </separator>
  <separator name="miscellaneous" >
   <i type="int" name="IDIOT">     3</i>
   <i type="int" name="ISPECIAL">     0</i>
   <i type="logical" name="LMUSIC"> F  </i>
   <v name="POMASS">      1.00000000     14.00100000     12.01100000</v>
   <v name="DARWINR">      0.00000000      0.00000000      0.00000000</v>
   <v name="DARWINV">      1.00000000      1.00000000      1.00000000</v>
   <i type="logical" name="LCORR"> T  </i>
  </separator>
  <i type="logical" name="GGA_COMPAT"> T  </i>
  <i type="logical" name="LBERRY"> F  </i>
  <i type="int" name="ICORELEVEL">     0</i>
  <i type="logical" name="LDAU"> F  </i>
  <i type="int" name="I_CONSTRAINED_M">     0</i>
  <separator name="electronic exchange-correlation" >
   <i type="string" name="GGA">PE</i>
   <i type="int" name="VOSKOWN">     0</i>
   <i type="logical" name="LHFCALC"> F  </i>
   <i type="string" name="PRECFOCK"></i>
   <i type="logical" name="LSYMGRAD"> F  </i>
   <i type="logical" name="LHFONE"> F  </i>
   <i type="logical" name="LRHFCALC"> F  </i>
   <i type="logical" name="LTHOMAS"> F  </i>
   <i type="logical" name="LMODELHF"> F  </i>
   <i name="ENCUT4O">     -1.00000000</i>
   <i type="int" name="EXXOEP">     0</i>
   <i type="int" name="FOURORBIT">     0</i>
   <i name="AEXX">      0.00000000</i>
   <i name="HFALPHA">      0.00000000</i>
   <i name="MCALPHA">      0.00000000</i>
   <i name="ALDAX">      1.00000000</i>
   <i name="AGGAX">      1.00000000</i>
   <i name="ALDAC">      1.00000000</i>
   <i name="AGGAC">      1.00000000</i>
   <i type="int" name="NKREDX">     1</i>
   <i type="int" name="NKREDY">     1</i>
   <i type="int" name="NKREDZ">     1</i>
   <i type="logical" name="SHIFTRED"> F  </i>
   <i type="logical" name="ODDONLY"> F  </i>
   <i type="logical" name="EVENONLY"> F  </i>
   <i type="int" name="LMAXFOCK">     0</i>
   <i type="int" name="NMAXFOCKAE">     0</i>
   <i type="logical" name="LFOCKAEDFT"> F  </i>
   <i name="HFSCREEN">      0.00000000</i>
   <i name="HFSCREENC">      0.00000000</i>
   <i type="int" name="NBANDSGWLOW">     0</i>
  </separator>
  <separator name="vdW DFT" >
   <i type="logical" name="LUSE_VDW"> F  </i>
   <i name="Zab_VDW">     -0.84910000</i>
   <i name="PARAM1">      0.12340000</i>
   <i name="PARAM2">      1.00000000</i>
   <i name="PARAM3">      0.00000000</i>
  </separator>
  <separator name="model GW" >
   <i type="int" name="MODEL_GW">     0</i>
   <i name="MODEL_EPS0">     87.28191513</i>
   <i name="MODEL_ALPHA">      1.00000000</i>
  </separator>
  <separator name="linear response parameters" >
   <i type="logical" name="LEPSILON"> F  </i>
   <i type="logical" name="LRPA"> F  </i>
   <i type="logical" name="LNABLA"> F  </i>
   <i type="logical" name="LVEL"> F  </i>
   <i type="int" name="KINTER">     0</i>
   <i name="CSHIFT">      0.10000000</i>
   <i name="OMEGAMAX">     -1.00000000</i>
   <i name="DEG_THRESHOLD">      0.00200000</i>
   <i name="RTIME">     -0.10000000</i>
   <i name="WPLASMAI">      0.00000000</i>
   <v name="DFIELD">      0.00000000      0.00000000      0.00000000</v>
   <v name="WPLASMA">      0.00000000      0.00000000      0.00000000      0.00000000      0.00000000      0.00000000      0.00000000      0.00000000      0.00000000</v>
  </separator>
  <separator name="orbital magnetization" >
   <i type="logical" name="NUCIND"> F  </i>
   <v name="MAGPOS">      0.00000000      0.00000000      0.00000000</v>
   <i type="logical" name="LNICSALL"> T  </i>
   <i type="logical" name="ORBITALMAG"> F  </i>
   <i type="logical" name="LMAGBLOCH"> F  </i>
   <i type="logical" name="LCHIMAG"> F  </i>
   <i type="logical" name="LGAUGE"> T  </i>
   <i type="int" name="MAGATOM">     0</i>
   <v name="MAGDIPOL">      0.00000000      0.00000000      0.00000000</v>
   <v name="AVECCONST">      0.00000000      0.00000000      0.00000000</v>
  </separator>
  <separator name="response functions" >
   <i type="logical" name="LADDER"> F  </i>
   <i type="logical" name="LRPAFORCE"> F  </i>
   <i type="logical" name="LFXC"> F  </i>
   <i type="logical" name="LHARTREE"> T  </i>
   <i type="int" name="IBSE">     0</i>
   <v type="int" name="KPOINT">    -1     0     0     0</v>
   <i type="logical" name="LTCTE"> F  </i>
   <i type="logical" name="LTETE"> F  </i>
   <i type="logical" name="LTRIPLET"> F  </i>
   <i type="logical" name="LFXCEPS"> F  </i>
   <i type="logical" name="LFXHEG"> F  </i>
   <i type="int" name="NATURALO">     2</i>
   <i type="logical" name="L2ORDER"> F  </i>
   <i type="logical" name="LMP2LT"> F  </i>
   <i type="logical" name="LUSEW"> F  </i>
   <i name="ENCUTGW">     -2.00000000</i>
   <i name="ENCUTGWSOFT">     -2.00000000</i>
   <i name="ENCUTLF">     -1.00000000</i>
   <i type="int" name="LMAXMP2">    -1</i>
   <i name="SCISSOR">      0.00000000</i>
   <i type="int" name="NOMEGA">     0</i>
   <i type="int" name="NOMEGAR">     0</i>
   <i type="int" name="NBANDSGW">    -1</i>
   <i type="int" name="NBANDSO">    -1</i>
   <i type="int" name="NBANDSV">    -1</i>
   <i type="int" name="NELM">   200</i>
   <i type="int" name="NELMHF">     1</i>
   <i type="int" name="DIM">     3</i>
   <i type="int" name="ANTIRES">     0</i>
   <i name="OMEGAMAX">    -30.00000000</i>
   <i name="OMEGAMIN">    -30.00000000</i>
   <i name="OMEGATL">   -200.00000000</i>
   <i type="int" name="OMEGAGRID">   140</i>
   <i name="CSHIFT">     -0.10000000</i>
   <i type="logical" name="SELFENERGY"> F  </i>
   <i type="logical" name="LSPECTRAL"> F  </i>
   <i type="logical" name="LSPECTRALGW"> F  </i>
   <i type="logical" name="LSINGLES"> F  </i>
   <i type="logical" name="LFERMIGW"> F  </i>
   <i type="logical" name="ODDONLYGW"> F  </i>
   <i type="logical" name="EVENONLYGW"> F  </i>
   <i type="int" name="NKREDLFX">     1</i>
   <i type="int" name="NKREDLFY">     1</i>
   <i type="int" name="NKREDLFZ">     1</i>
   <i type="int" name="MAXMEM">  2800</i>
   <i type="int" name="TELESCOPE">     0</i>
   <i type="int" name="TAUPAR">     1</i>
   <i type="int" name="OMEGAPAR">    -1</i>
   <i name="LAMBDA">      1.00000000</i>
  </separator>
  <separator name="External order field" >
   <i name="OFIELD_KAPPA">      0.00000000</i>
   <v name="OFIELD_K">      0.00000000      0.00000000      0.00000000</v>
   <i name="OFIELD_Q6_NEAR">      0.00000000</i>
   <i name="OFIELD_Q6_FAR">      0.00000000</i>
   <i name="OFIELD_A">      0.00000000</i>
  </separator>
  <separator name="solvation model" >
   <i type="logical" name="LSOL"> F  </i>
  </separator>
 </parameters>
 <atominfo>
  <atoms>     102 </atoms>
  <types>       3 </types>
  <array name="atoms" >
   <dimension dim="1">ion</dimension>
   <field type="string">element</field>
   <field type="int">atomtype</field>
   <set>
    <rc><c>H </c><c>   1</c></rc>
    <rc><c>H </c><c>   1</c></rc>
    <rc><c>H </c><c>   1</c></rc>
    <rc><c>H </c><c>   1</c></rc>
    <rc><c>H </c><c>   1</c></rc>
    <rc><c>H </c><c>   1</c></rc>
    <rc><c>H </c><c>   1</c></rc>
    <rc><c>H </c><c>   1</c></rc>
    <rc><c>H </c><c>   1</c></rc>
    <rc><c>H </c><c>   1</c></rc>
    <rc><c>H </c><c>   1</c></rc>
    <rc><c>H </c><c>   1</c></rc>
    <rc><c>H </c><c>   1</c></rc>
    <rc><c>H </c><c>   1</c></rc>
    <rc><c>H </c><c>   1</c></rc>
    <rc><c>H </c><c>   1</c></rc>
    <rc><c>H </c><c>   1</c></rc>
    <rc><c>H </c><c>   1</c></rc>
    <rc><c>H </c><c>   1</c></rc>
    <rc><c>H </c><c>   1</c></rc>
    <rc><c>H </c><c>   1</c></rc>
    <rc><c>H </c><c>   1</c></rc>
    <rc><c>H </c><c>   1</c></rc>
    <rc><c>H </c><c>   1</c></rc>
    <rc><c>H </c><c>   1</c></rc>
    <rc><c>H </c><c>   1</c></rc>
    <rc><c>H </c><c>   1</c></rc>
    <rc><c>H </c><c>   1</c></rc>
    <rc><c>H </c><c>   1</c></rc>
    <rc><c>H </c><c>   1</c></rc>
    <rc><c>H </c><c>   1</c></rc>
    <rc><c>H </c><c>   1</c></rc>
    <rc><c>H </c><c>   1</c></rc>
    <rc><c>N </c><c>   2</c></rc>
    <rc><c>N </c><c>   2</c></rc>
    <rc><c>N </c><c>   2</c></rc>
    <rc><c>N </c><c>   2</c></rc>
    <rc><c>N </c><c>   2</c></rc>
    <rc><c>N </c><c>   2</c></rc>
    <rc><c>N </c><c>   2</c></rc>
    <rc><c>N </c><c>   2</c></rc>
    <rc><c>N </c><c>   2</c></rc>
    <rc><c>N </c><c>   2</c></rc>
    <rc><c>N </c><c>   2</c></rc>
    <rc><c>N </c><c>   2</c></rc>
    <rc><c>N </c><c>   2</c></rc>
    <rc><c>N </c><c>   2</c></rc>
    <rc><c>N </c><c>   2</c></rc>
    <rc><c>C </c><c>   3</c></rc>
    <rc><c>C </c><c>   3</c></rc>
    <rc><c>C </c><c>   3</c></rc>
    <rc><c>C </c><c>   3</c></rc>
    <rc><c>C </c><c>   3</c></rc>
    <rc><c>C </c><c>   3</c></rc>
    <rc><c>C </c><c>   3</c></rc>
    <rc><c>C </c><c>   3</c></rc>
    <rc><c>C </c><c>   3</c></rc>
    <rc><c>C </c><c>   3</c></rc>
    <rc><c>C </c><c>   3</c></rc>
    <rc><c>C </c><c>   3</c></rc>
    <rc><c>C </c><c>   3</c></rc>
    <rc><c>C </c><c>   3</c></rc>
    <rc><c>C </c><c>   3</c></rc>
    <rc><c>C </c><c>   3</c></rc>
    <rc><c>C </c><c>   3</c></rc>
    <rc><c>C </c><c>   3</c></rc>
    <rc><c>C </c><c>   3</c></rc>
    <rc><c>C </c><c>   3</c></rc>
    <rc><c>C </c><c>   3</c></rc>
    <rc><c>C </c><c>   3</c></rc>
    <rc><c>C </c><c>   3</c></rc>
    <rc><c>C </c><c>   3</c></rc>
    <rc><c>C </c><c>   3</c></rc>
    <rc><c>C </c><c>   3</c></rc>
    <rc><c>C </c><c>   3</c></rc>
    <rc><c>C </c><c>   3</c></rc>
    <rc><c>C </c><c>   3</c></rc>
    <rc><c>C </c><c>   3</c></rc>
    <rc><c>C </c><c>   3</c></rc>
    <rc><c>C </c><c>   3</c></rc>
    <rc><c>C </c><c>   3</c></rc>
    <rc><c>C </c><c>   3</c></rc>
    <rc><c>C </c><c>   3</c></rc>
    <rc><c>C </c><c>   3</c></rc>
    <rc><c>C </c><c>   3</c></rc>
    <rc><c>C </c><c>   3</c></rc>
    <rc><c>C </c><c>   3</c></rc>
    <rc><c>C </c><c>   3</c></rc>
    <rc><c>C </c><c>   3</c></rc>
    <rc><c>C </c><c>   3</c></rc>
    <rc><c>C </c><c>   3</c></rc>
    <rc><c>C </c><c>   3</c></rc>
    <rc><c>C </c><c>   3</c></rc>
    <rc><c>C </c><c>   3</c></rc>
    <rc><c>C </c><c>   3</c></rc>
    <rc><c>C </c><c>   3</c></rc>
    <rc><c>C </c><c>   3</c></rc>
    <rc><c>C </c><c>   3</c></rc>
    <rc><c>C </c><c>   3</c></rc>
    <rc><c>C </c><c>   3</c></rc>
    <rc><c>C </c><c>   3</c></rc>
    <rc><c>C </c><c>   3</c></rc>
   </set>
  </array>
  <array name="atomtypes" >
   <dimension dim="1">type</dimension>
   <field type="int">atomspertype</field>
   <field type="string">element</field>
   <field>mass</field>
   <field>valence</field>
   <field type="string">pseudopotential</field>
   <set>
    <rc><c>  33</c><c>H </c><c>      1.00000000</c><c>      1.00000000</c><c>  PAW_PBE H 15Jun2001                   </c></rc>
    <rc><c>  15</c><c>N </c><c>     14.00100000</c><c>      5.00000000</c><c>  PAW_PBE N 08Apr2002                   </c></rc>
    <rc><c>  54</c><c>C </c><c>     12.01100000</c><c>      4.00000000</c><c>  PAW_PBE C 08Apr2002                   </c></rc>
   </set>
  </array>
 </atominfo>
 <structure name="initialpos" >
  <crystal>
   <varray name="basis" >
    <v>      29.26889189       0.00000000       0.00000000 </v>
    <v>     -14.63444594      25.34760391       0.00000000 </v>
    <v>       0.00000000       0.00000000      20.00000000 </v>
   </varray>
   <i name="volume">  14837.92557170 </i>
   <varray name="rec_basis" >
    <v>       0.03416597       0.01972573       0.00000000 </v>
    <v>       0.00000000       0.03945146       0.00000000 </v>
    <v>       0.00000000       0.00000000       0.05000000 </v>
   </varray>
  </crystal>
  <varray name="positions" >
   <v>       0.04454093       0.52227046       0.39673336 </v>
   <v>       0.51432633       0.88153495       0.50415007 </v>
   <v>       0.46487432       0.78302316       0.50294016 </v>
   <v>       0.36720862       0.88153495       0.50415007 </v>
   <v>       0.31814884       0.78302316       0.50294016 </v>
   <v>       0.21697684       0.68185116       0.50294016 </v>
   <v>       0.11846505       0.63279138       0.50415007 </v>
   <v>       0.21697684       0.53512568       0.50294016 </v>
   <v>       0.11846505       0.48567367       0.50415007 </v>
   <v>       0.31814884       0.53512568       0.50294016 </v>
   <v>       0.36720862       0.48567367       0.50415007 </v>
   <v>       0.51432633       0.63279138       0.50415007 </v>
   <v>       0.46487432       0.68185116       0.50294016 </v>
   <v>       0.48567165       0.11849795       0.50399799 </v>
   <v>       0.53515332       0.21703834       0.50377269 </v>
   <v>       0.63282630       0.11849795       0.50399799 </v>
   <v>       0.68188502       0.21703834       0.50377269 </v>
   <v>       0.78296166       0.31811498       0.50377269 </v>
   <v>       0.88150205       0.36717370       0.50399799 </v>
   <v>       0.78296166       0.46484668       0.50377269 </v>
   <v>       0.88150205       0.51432835       0.50399799 </v>
   <v>       0.68188502       0.46484668       0.50377269 </v>
   <v>       0.63282630       0.51432835       0.50399799 </v>
   <v>       0.48567165       0.36717370       0.50399799 </v>
   <v>       0.53515332       0.31811498       0.50377269 </v>
   <v>       0.54413642       0.45586358       0.62896320 </v>
   <v>       0.51303958       0.48696042       0.66713099 </v>
   <v>       0.54413642       0.08827285       0.62896320 </v>
   <v>       0.51303958       0.02607917       0.66713099 </v>
   <v>       0.91172715       0.45586358       0.62896320 </v>
   <v>       0.97392083       0.48696042       0.66713099 </v>
   <v>       0.47772954       0.52227046       0.39673336 </v>
   <v>       0.47772954       0.95545907       0.39673336 </v>
   <v>       0.02901078       0.51450539       0.56464259 </v>
   <v>       0.38754518       0.69377259       0.50251268 </v>
   <v>       0.30622741       0.61245482       0.50251268 </v>
   <v>       0.30622741       0.69377259       0.50251268 </v>
   <v>       0.61246368       0.30623184       0.50361540 </v>
   <v>       0.69376816       0.38753632       0.50361540 </v>
   <v>       0.69376816       0.30623184       0.50361540 </v>
   <v>       0.48549461       0.51450539       0.56464259 </v>
   <v>       0.52427105       0.47572895       0.62533857 </v>
   <v>       0.48549461       0.97098922       0.56464259 </v>
   <v>       0.52427105       0.04854210       0.62533857 </v>
   <v>       0.95145790       0.47572895       0.62533857 </v>
   <v>       0.51419538       0.48580462       0.44492570 </v>
   <v>       0.51419538       0.02839077       0.44492570 </v>
   <v>       0.97160923       0.48580462       0.44492570 </v>
   <v>       0.02463930       0.51231965       0.44513757 </v>
   <v>       0.05329323       0.52664662       0.50494120 </v>
   <v>       0.35925787       0.71851573       0.50255276 </v>
   <v>       0.35925787       0.64074213       0.50255276 </v>
   <v>       0.28148427       0.64074213       0.50255276 </v>
   <v>       0.38845594       0.61154406       0.50291787 </v>
   <v>       0.44387514       0.63887871       0.50319086 </v>
   <v>       0.47128081       0.61136523       0.50388750 </v>
   <v>       0.44396225       0.55603775       0.50447284 </v>
   <v>       0.38863477       0.52871919       0.50388750 </v>
   <v>       0.36112129       0.55612486       0.50319086 </v>
   <v>       0.38845594       0.77691187       0.50291787 </v>
   <v>       0.44387514       0.80499642       0.50319086 </v>
   <v>       0.47128081       0.85991558       0.50388750 </v>
   <v>       0.44396225       0.88792449       0.50447284 </v>
   <v>       0.38863477       0.85991558       0.50388750 </v>
   <v>       0.36112129       0.80499642       0.50319086 </v>
   <v>       0.22308813       0.61154406       0.50291787 </v>
   <v>       0.19500358       0.63887871       0.50319086 </v>
   <v>       0.14008442       0.61136523       0.50388750 </v>
   <v>       0.11207551       0.55603775       0.50447284 </v>
   <v>       0.14008442       0.52871919       0.50388750 </v>
   <v>       0.19500358       0.55612486       0.50319086 </v>
   <v>       0.64074713       0.28149427       0.50363545 </v>
   <v>       0.64074713       0.35925287       0.50363545 </v>
   <v>       0.71850573       0.35925287       0.50363545 </v>
   <v>       0.61155283       0.38844717       0.50400770 </v>
   <v>       0.55613249       0.36109095       0.50416000 </v>
   <v>       0.52872161       0.38860648       0.50436367 </v>
   <v>       0.55600373       0.44399627       0.50402583 </v>
   <v>       0.61139352       0.47127839       0.50436367 </v>
   <v>       0.63890905       0.44386751       0.50416000 </v>
   <v>       0.61155283       0.22310567       0.50400770 </v>
   <v>       0.55613249       0.19504154       0.50416000 </v>
   <v>       0.52872161       0.14011514       0.50436367 </v>
   <v>       0.55600373       0.11200746       0.50402583 </v>
   <v>       0.61139352       0.14011514       0.50436367 </v>
   <v>       0.63890905       0.19504154       0.50416000 </v>
   <v>       0.77689433       0.38844717       0.50400770 </v>
   <v>       0.80495846       0.36109095       0.50416000 </v>
   <v>       0.85988486       0.38860648       0.50436367 </v>
   <v>       0.88799254       0.44399627       0.50402583 </v>
   <v>       0.85988486       0.47127839       0.50436367 </v>
   <v>       0.80495846       0.44386751       0.50416000 </v>
   <v>       0.52659974       0.47340026       0.50358394 </v>
   <v>       0.47335338       0.52664662       0.50494120 </v>
   <v>       0.51200512       0.48799488       0.56465463 </v>
   <v>       0.52659974       0.05319947       0.50358394 </v>
   <v>       0.47335338       0.94670677       0.50494120 </v>
   <v>       0.51200512       0.02401024       0.56465463 </v>
   <v>       0.94680053       0.47340026       0.50358394 </v>
   <v>       0.97598976       0.48799488       0.56465463 </v>
   <v>       0.48768035       0.51231965       0.44513757 </v>
   <v>       0.48768035       0.97536070       0.44513757 </v>
  </varray>
 </structure>
 <calculation>
  <scstep>
   <time name="dav">  563.62  570.72</time>
   <time name="total">  563.87  570.99</time>
   <energy>
    <i name="alphaZ">     33.02930244 </i>
    <i name="ewald">  39244.51824702 </i>
    <i name="hartreedc"> -49314.05051506 </i>
    <i name="XCdc">   1136.26165754 </i>
    <i name="pawpsdc">  30659.74406152 </i>
    <i name="pawaedc"> -30718.70921480 </i>
    <i name="eentropy">     -0.00000000 </i>
    <i name="bandstr">  -4097.09989153 </i>
    <i name="atom">  12326.08969820 </i>
    <i name="e_fr_energy">   -730.21665468 </i>
    <i name="e_wo_entrp">   -730.21665468 </i>
    <i name="e_0_energy">   -730.21665468 </i>
   </energy>
  </scstep>
  <scstep>
   <time name="dav">  612.57  620.42</time>
   <time name="total">  612.57  620.43</time>
   <energy>
    <i name="e_fr_energy">   -730.61984514 </i>
    <i name="e_wo_entrp">   -730.61984514 </i>
    <i name="e_0_energy">   -730.61984514 </i>
   </energy>
  </scstep>
  <scstep>
   <time name="dav">  698.18  706.82</time>
   <time name="total">  698.19  706.82</time>
   <energy>
    <i name="e_fr_energy">   -730.63219236 </i>
    <i name="e_wo_entrp">   -730.63219236 </i>
    <i name="e_0_energy">   -730.63219236 </i>
   </energy>
  </scstep>
  <scstep>
   <time name="dav">  615.77  623.51</time>
   <time name="total">  615.78  623.52</time>
   <energy>
    <i name="e_fr_energy">   -730.63237749 </i>
    <i name="e_wo_entrp">   -730.63237749 </i>
    <i name="e_0_energy">   -730.63237749 </i>
   </energy>
  </scstep>
  <scstep>
   <time name="dav">  582.69  589.96</time>
   <time name="total">  582.69  589.96</time>
   <energy>
    <i name="alphaZ">     33.02930244 </i>
    <i name="ewald">  39244.51824702 </i>
    <i name="hartreedc"> -49314.05051506 </i>
    <i name="XCdc">   1136.26165754 </i>
    <i name="pawpsdc">  30659.74406152 </i>
    <i name="pawaedc"> -30718.70921480 </i>
    <i name="eentropy">     -0.00000000 </i>
    <i name="bandstr">  -4097.51562352 </i>
    <i name="atom">  12326.08969820 </i>
    <i name="e_fr_energy">   -730.63238667 </i>
    <i name="e_wo_entrp">   -730.63238667 </i>
    <i name="e_0_energy">   -730.63238667 </i>
   </energy>
  </scstep>
  <structure>
   <crystal>
    <varray name="basis" >
     <v>      29.26889189       0.00000000       0.00000000 </v>
     <v>     -14.63444594      25.34760391       0.00000000 </v>
     <v>       0.00000000       0.00000000      20.00000000 </v>
    </varray>
    <i name="volume">  14837.92557170 </i>
    <varray name="rec_basis" >
     <v>       0.03416597       0.01972573       0.00000000 </v>
     <v>       0.00000000       0.03945146       0.00000000 </v>
     <v>       0.00000000       0.00000000       0.05000000 </v>
    </varray>
   </crystal>
   <varray name="positions" >
    <v>       0.04454093       0.52227046       0.39673336 </v>
    <v>       0.51432633       0.88153495       0.50415007 </v>
    <v>       0.46487432       0.78302316       0.50294016 </v>
    <v>       0.36720862       0.88153495       0.50415007 </v>
    <v>       0.31814884       0.78302316       0.50294016 </v>
    <v>       0.21697684       0.68185116       0.50294016 </v>
    <v>       0.11846505       0.63279138       0.50415007 </v>
    <v>       0.21697684       0.53512568       0.50294016 </v>
    <v>       0.11846505       0.48567367       0.50415007 </v>
    <v>       0.31814884       0.53512568       0.50294016 </v>
    <v>       0.36720862       0.48567367       0.50415007 </v>
    <v>       0.51432633       0.63279138       0.50415007 </v>
    <v>       0.46487432       0.68185116       0.50294016 </v>
    <v>       0.48567165       0.11849795       0.50399799 </v>
    <v>       0.53515332       0.21703834       0.50377269 </v>
    <v>       0.63282630       0.11849795       0.50399799 </v>
    <v>       0.68188502       0.21703834       0.50377269 </v>
    <v>       0.78296166       0.31811498       0.50377269 </v>
    <v>       0.88150205       0.36717370       0.50399799 </v>
    <v>       0.78296166       0.46484668       0.50377269 </v>
    <v>       0.88150205       0.51432835       0.50399799 </v>
    <v>       0.68188502       0.46484668       0.50377269 </v>
    <v>       0.63282630       0.51432835       0.50399799 </v>
    <v>       0.48567165       0.36717370       0.50399799 </v>
    <v>       0.53515332       0.31811498       0.50377269 </v>
    <v>       0.54413642       0.45586358       0.62896320 </v>
    <v>       0.51303958       0.48696042       0.66713099 </v>
    <v>       0.54413642       0.08827285       0.62896320 </v>
    <v>       0.51303958       0.02607917       0.66713099 </v>
    <v>       0.91172715       0.45586358       0.62896320 </v>
    <v>       0.97392083       0.48696042       0.66713099 </v>
    <v>       0.47772954       0.52227046       0.39673336 </v>
    <v>       0.47772954       0.95545907       0.39673336 </v>
    <v>       0.02901078       0.51450539       0.56464259 </v>
    <v>       0.38754518       0.69377259       0.50251268 </v>
    <v>       0.30622741       0.61245482       0.50251268 </v>
    <v>       0.30622741       0.69377259       0.50251268 </v>
    <v>       0.61246368       0.30623184       0.50361540 </v>
    <v>       0.69376816       0.38753632       0.50361540 </v>
    <v>       0.69376816       0.30623184       0.50361540 </v>
    <v>       0.48549461       0.51450539       0.56464259 </v>
    <v>       0.52427105       0.47572895       0.62533857 </v>
    <v>       0.48549461       0.97098922       0.56464259 </v>
    <v>       0.52427105       0.04854210       0.62533857 </v>
    <v>       0.95145790       0.47572895       0.62533857 </v>
    <v>       0.51419538       0.48580462       0.44492570 </v>
    <v>       0.51419538       0.02839077       0.44492570 </v>
    <v>       0.97160923       0.48580462       0.44492570 </v>
    <v>       0.02463930       0.51231965       0.44513757 </v>
    <v>       0.05329323       0.52664662       0.50494120 </v>
    <v>       0.35925787       0.71851573       0.50255276 </v>
    <v>       0.35925787       0.64074213       0.50255276 </v>
    <v>       0.28148427       0.64074213       0.50255276 </v>
    <v>       0.38845594       0.61154406       0.50291787 </v>
    <v>       0.44387514       0.63887871       0.50319086 </v>
    <v>       0.47128081       0.61136523       0.50388750 </v>
    <v>       0.44396225       0.55603775       0.50447284 </v>
    <v>       0.38863477       0.52871919       0.50388750 </v>
    <v>       0.36112129       0.55612486       0.50319086 </v>
    <v>       0.38845594       0.77691187       0.50291787 </v>
    <v>       0.44387514       0.80499642       0.50319086 </v>
    <v>       0.47128081       0.85991558       0.50388750 </v>
    <v>       0.44396225       0.88792449       0.50447284 </v>
    <v>       0.38863477       0.85991558       0.50388750 </v>
    <v>       0.36112129       0.80499642       0.50319086 </v>
    <v>       0.22308813       0.61154406       0.50291787 </v>
    <v>       0.19500358       0.63887871       0.50319086 </v>
    <v>       0.14008442       0.61136523       0.50388750 </v>
    <v>       0.11207551       0.55603775       0.50447284 </v>
    <v>       0.14008442       0.52871919       0.50388750 </v>
    <v>       0.19500358       0.55612486       0.50319086 </v>
    <v>       0.64074713       0.28149427       0.50363545 </v>
    <v>       0.64074713       0.35925287       0.50363545 </v>
    <v>       0.71850573       0.35925287       0.50363545 </v>
    <v>       0.61155283       0.38844717       0.50400770 </v>
    <v>       0.55613249       0.36109095       0.50416000 </v>
    <v>       0.52872161       0.38860648       0.50436367 </v>
    <v>       0.55600373       0.44399627       0.50402583 </v>
    <v>       0.61139352       0.47127839       0.50436367 </v>
    <v>       0.63890905       0.44386751       0.50416000 </v>
    <v>       0.61155283       0.22310567       0.50400770 </v>
    <v>       0.55613249       0.19504154       0.50416000 </v>
    <v>       0.52872161       0.14011514       0.50436367 </v>
    <v>       0.55600373       0.11200746       0.50402583 </v>
    <v>       0.61139352       0.14011514       0.50436367 </v>
    <v>       0.63890905       0.19504154       0.50416000 </v>
    <v>       0.77689433       0.38844717       0.50400770 </v>
    <v>       0.80495846       0.36109095       0.50416000 </v>
    <v>       0.85988486       0.38860648       0.50436367 </v>
    <v>       0.88799254       0.44399627       0.50402583 </v>
    <v>       0.85988486       0.47127839       0.50436367 </v>
    <v>       0.80495846       0.44386751       0.50416000 </v>
    <v>       0.52659974       0.47340026       0.50358394 </v>
    <v>       0.47335338       0.52664662       0.50494120 </v>
    <v>       0.51200512       0.48799488       0.56465463 </v>
    <v>       0.52659974       0.05319947       0.50358394 </v>
    <v>       0.47335338       0.94670677       0.50494120 </v>
    <v>       0.51200512       0.02401024       0.56465463 </v>
    <v>       0.94680053       0.47340026       0.50358394 </v>
    <v>       0.97598976       0.48799488       0.56465463 </v>
    <v>       0.48768035       0.51231965       0.44513757 </v>
    <v>       0.48768035       0.97536070       0.44513757 </v>
   </varray>
  </structure>
  <varray name="forces" >
   <v>      -0.00084200      -0.00048613       0.00464060 </v>
   <v>       0.00161324      -0.00027241       0.00600748 </v>
   <v>       0.00111864      -0.00170171      -0.00104368 </v>
   <v>      -0.00161324      -0.00027241       0.00600748 </v>
   <v>      -0.00111864      -0.00170171      -0.00104368 </v>
   <v>       0.00091441       0.00181963      -0.00104368 </v>
   <v>      -0.00057070       0.00153331       0.00600748 </v>
   <v>       0.00203305      -0.00011791      -0.00104368 </v>
   <v>       0.00104254      -0.00126090       0.00600748 </v>
   <v>      -0.00203305      -0.00011791      -0.00104368 </v>
   <v>      -0.00104254      -0.00126090       0.00600748 </v>
   <v>       0.00057070       0.00153331       0.00600748 </v>
   <v>      -0.00091441       0.00181963      -0.00104368 </v>
   <v>      -0.00008211      -0.00118949      -0.00208944 </v>
   <v>       0.00042660      -0.00258706       0.00104761 </v>
   <v>       0.00008211      -0.00118949      -0.00208944 </v>
   <v>      -0.00042660      -0.00258706       0.00104761 </v>
   <v>       0.00202716       0.00166298       0.00104761 </v>
   <v>       0.00107118       0.00052363      -0.00208944 </v>
   <v>       0.00245376       0.00092408       0.00104761 </v>
   <v>       0.00098907       0.00066586      -0.00208944 </v>
   <v>      -0.00245376       0.00092408       0.00104761 </v>
   <v>      -0.00098907       0.00066586      -0.00208944 </v>
   <v>      -0.00107118       0.00052363      -0.00208944 </v>
   <v>      -0.00202716       0.00166298       0.00104761 </v>
   <v>      -0.00221267       0.00127748      -0.00443833 </v>
   <v>       0.00308174      -0.00177924      -0.00118384 </v>
   <v>      -0.00000000      -0.00255497      -0.00443833 </v>
   <v>       0.00000000       0.00355849      -0.00118384 </v>
   <v>       0.00221267       0.00127748      -0.00443833 </v>
   <v>      -0.00308174      -0.00177924      -0.00118384 </v>
   <v>       0.00084200      -0.00048613       0.00464060 </v>
   <v>       0.00000000       0.00097226       0.00464060 </v>
   <v>      -0.00100324      -0.00057922       0.00238890 </v>
   <v>       0.00342284       0.00197618       0.00058040 </v>
   <v>       0.00000000      -0.00395235       0.00058040 </v>
   <v>      -0.00342284       0.00197618       0.00058040 </v>
   <v>       0.00152508       0.00088051       0.00298678 </v>
   <v>      -0.00000000      -0.00176101       0.00298678 </v>
   <v>      -0.00152508       0.00088051       0.00298678 </v>
   <v>       0.00100324      -0.00057922       0.00238890 </v>
   <v>       0.00608181      -0.00351134      -0.00190295 </v>
   <v>       0.00000000       0.00115844       0.00238890 </v>
   <v>       0.00000000       0.00702267      -0.00190295 </v>
   <v>      -0.00608181      -0.00351134      -0.00190295 </v>
   <v>      -0.00203611       0.00117555      -0.00103021 </v>
   <v>       0.00000000      -0.00235110      -0.00103021 </v>
   <v>       0.00203611       0.00117555      -0.00103021 </v>
   <v>       0.00539078       0.00311237      -0.00256700 </v>
   <v>       0.00110341       0.00063706      -0.00880865 </v>
   <v>      -0.00000000       0.00426437       0.00003662 </v>
   <v>       0.00369305      -0.00213219       0.00003662 </v>
   <v>      -0.00369305      -0.00213219       0.00003662 </v>
   <v>      -0.00123906       0.00071537      -0.00044966 </v>
   <v>      -0.00136796      -0.00261585      -0.00045745 </v>
   <v>      -0.00205825      -0.00287072       0.00224680 </v>
   <v>      -0.00230231       0.00132924       0.00376453 </v>
   <v>       0.00145699       0.00321786       0.00224680 </v>
   <v>       0.00158141       0.00249261      -0.00045745 </v>
   <v>      -0.00000000      -0.00143074      -0.00044966 </v>
   <v>      -0.00294937       0.00012323      -0.00045745 </v>
   <v>      -0.00351524      -0.00034714       0.00224680 </v>
   <v>       0.00000000      -0.00265847       0.00376453 </v>
   <v>       0.00351524      -0.00034714       0.00224680 </v>
   <v>       0.00294937       0.00012323      -0.00045745 </v>
   <v>       0.00123906       0.00071537      -0.00044966 </v>
   <v>       0.00136796      -0.00261585      -0.00045745 </v>
   <v>       0.00205825      -0.00287072       0.00224680 </v>
   <v>       0.00230231       0.00132924       0.00376453 </v>
   <v>      -0.00145699       0.00321786       0.00224680 </v>
   <v>      -0.00158141       0.00249261      -0.00045745 </v>
   <v>       0.00000000      -0.00040521       0.00347572 </v>
   <v>      -0.00035092       0.00020260       0.00347572 </v>
   <v>       0.00035092       0.00020260       0.00347572 </v>
   <v>      -0.00051915       0.00029973       0.00085993 </v>
   <v>      -0.00163259      -0.00180759      -0.00026018 </v>
   <v>      -0.00027279       0.00194309      -0.00276585 </v>
   <v>      -0.00037552       0.00021681      -0.00285889 </v>
   <v>      -0.00181916      -0.00073530      -0.00276585 </v>
   <v>       0.00074913       0.00231766      -0.00026018 </v>
   <v>      -0.00000000      -0.00059946       0.00085993 </v>
   <v>      -0.00238172      -0.00051007      -0.00026018 </v>
   <v>       0.00154637      -0.00120779      -0.00276585 </v>
   <v>      -0.00000000      -0.00043362      -0.00285889 </v>
   <v>      -0.00154637      -0.00120779      -0.00276585 </v>
   <v>       0.00238172      -0.00051007      -0.00026018 </v>
   <v>       0.00051915       0.00029973       0.00085993 </v>
   <v>       0.00163259      -0.00180759      -0.00026018 </v>
   <v>       0.00027279       0.00194309      -0.00276585 </v>
   <v>       0.00037552       0.00021681      -0.00285889 </v>
   <v>       0.00181916      -0.00073530      -0.00276585 </v>
   <v>      -0.00074913       0.00231766      -0.00026018 </v>
   <v>       0.00068527      -0.00039564      -0.00012917 </v>
   <v>      -0.00110341       0.00063706      -0.00880865 </v>
   <v>       0.00453515      -0.00261837      -0.00073535 </v>
   <v>      -0.00000000       0.00079128      -0.00012917 </v>
   <v>       0.00000000      -0.00127411      -0.00880865 </v>
   <v>       0.00000000       0.00523674      -0.00073535 </v>
   <v>      -0.00068527      -0.00039564      -0.00012917 </v>
   <v>      -0.00453515      -0.00261837      -0.00073535 </v>
   <v>      -0.00539078       0.00311237      -0.00256700 </v>
   <v>      -0.00000000      -0.00622474      -0.00256700 </v>
  </varray>
  <varray name="stress" >
   <v>       0.00515793       0.00000000       0.00000000 </v>
   <v>       0.00000000       0.00515793       0.00000000 </v>
   <v>       0.00000000       0.00000000      -0.14123594 </v>
  </varray>
  <energy>
   <i name="e_fr_energy">   -732.56506429 </i>
   <i name="e_wo_entrp">   -732.56506429 </i>
   <i name="e_0_energy">     -0.00000000 </i>
  </energy>
  <time name="totalsc"> 3721.00 3770.08</time>
  <eigenvalues>
   <array>
    <dimension dim="1">band</dimension>
    <dimension dim="2">kpoint</dimension>
    <dimension dim="3">spin</dimension>
    <field>eigene</field>
    <field>occ</field>
    <set>
     <set comment="spin 1">
      <set comment="kpoint 1">
       <r>  -25.3928    1.0000 </r>
       <r>  -25.1392    1.0000 </r>
       <r>  -24.4913    1.0000 </r>
       <r>  -24.4913    1.0000 </r>
       <r>  -24.4906    1.0000 </r>
       <r>  -22.9393    1.0000 </r>
       <r>  -22.9392    1.0000 </r>
       <r>  -22.9386    1.0000 </r>
       <r>  -22.4740    1.0000 </r>
       <r>  -22.4740    1.0000 </r>
       <r>  -22.2289    1.0000 </r>
       <r>  -22.2286    1.0000 </r>
       <r>  -22.0914    1.0000 </r>
       <r>  -22.0689    1.0000 </r>
       <r>  -22.0685    1.0000 </r>
       <r>  -21.3213    1.0000 </r>
       <r>  -21.2571    1.0000 </r>
       <r>  -21.2565    1.0000 </r>
       <r>  -21.0842    1.0000 </r>
       <r>  -21.0220    1.0000 </r>
       <r>  -21.0219    1.0000 </r>
       <r>  -19.4417    1.0000 </r>
       <r>  -19.4417    1.0000 </r>
       <r>  -19.3610    1.0000 </r>
       <r>  -19.1185    1.0000 </r>
       <r>  -19.1184    1.0000 </r>
       <r>  -18.9505    1.0000 </r>
       <r>  -18.5105    1.0000 </r>
       <r>  -18.5073    1.0000 </r>
       <r>  -18.5066    1.0000 </r>
       <r>  -18.2875    1.0000 </r>
       <r>  -18.2874    1.0000 </r>
       <r>  -18.2694    1.0000 </r>
       <r>  -18.0977    1.0000 </r>
       <r>  -18.0976    1.0000 </r>
       <r>  -17.8480    1.0000 </r>
       <r>  -17.1397    1.0000 </r>
       <r>  -17.1397    1.0000 </r>
       <r>  -16.4692    1.0000 </r>
       <r>  -16.3727    1.0000 </r>
       <r>  -16.3727    1.0000 </r>
       <r>  -15.8698    1.0000 </r>
       <r>  -15.8694    1.0000 </r>
       <r>  -15.8488    1.0000 </r>
       <r>  -15.5861    1.0000 </r>
       <r>  -15.5860    1.0000 </r>
       <r>  -15.2243    1.0000 </r>
       <r>  -15.0934    1.0000 </r>
       <r>  -14.9868    1.0000 </r>
       <r>  -14.9055    1.0000 </r>
       <r>  -14.9054    1.0000 </r>
       <r>  -14.6860    1.0000 </r>
       <r>  -14.6859    1.0000 </r>
       <r>  -14.6500    1.0000 </r>
       <r>  -14.2015    1.0000 </r>
       <r>  -14.2012    1.0000 </r>
       <r>  -14.0624    1.0000 </r>
       <r>  -14.0623    1.0000 </r>
       <r>  -13.4562    1.0000 </r>
       <r>  -13.4399    1.0000 </r>
       <r>  -13.4398    1.0000 </r>
       <r>  -13.3219    1.0000 </r>
       <r>  -13.2804    1.0000 </r>
       <r>  -13.0832    1.0000 </r>
       <r>  -13.0773    1.0000 </r>
       <r>  -12.9655    1.0000 </r>
       <r>  -12.9653    1.0000 </r>
       <r>  -12.8134    1.0000 </r>
       <r>  -12.6622    1.0000 </r>
       <r>  -12.6620    1.0000 </r>
       <r>  -12.1318    1.0000 </r>
       <r>  -11.8913    1.0000 </r>
       <r>  -11.8912    1.0000 </r>
       <r>  -11.7097    1.0000 </r>
       <r>  -11.7074    1.0000 </r>
       <r>  -11.7071    1.0000 </r>
       <r>  -11.5205    1.0000 </r>
       <r>  -11.5204    1.0000 </r>
       <r>  -11.2616    1.0000 </r>
       <r>  -11.2439    1.0000 </r>
       <r>  -11.1946    1.0000 </r>
       <r>  -11.1946    1.0000 </r>
       <r>  -11.0359    1.0000 </r>
       <r>  -11.0023    1.0000 </r>
       <r>  -10.9981    1.0000 </r>
       <r>  -10.9980    1.0000 </r>
       <r>  -10.8285    1.0000 </r>
       <r>  -10.8039    1.0000 </r>
       <r>  -10.8039    1.0000 </r>
       <r>  -10.7184    1.0000 </r>
       <r>  -10.6241    1.0000 </r>
       <r>  -10.6241    1.0000 </r>
       <r>  -10.5280    1.0000 </r>
       <r>  -10.2383    1.0000 </r>
       <r>  -10.2380    1.0000 </r>
       <r>  -10.1870    1.0000 </r>
       <r>  -10.1580    1.0000 </r>
       <r>  -10.1579    1.0000 </r>
       <r>  -10.1299    1.0000 </r>
       <r>  -10.0575    1.0000 </r>
       <r>  -10.0236    1.0000 </r>
       <r>  -10.0235    1.0000 </r>
       <r>   -9.8918    1.0000 </r>
       <r>   -9.8667    1.0000 </r>
       <r>   -9.8667    1.0000 </r>
       <r>   -9.6019    1.0000 </r>
       <r>   -9.6018    1.0000 </r>
       <r>   -9.4541    1.0000 </r>
       <r>   -9.4539    1.0000 </r>
       <r>   -9.2323    1.0000 </r>
       <r>   -9.2320    1.0000 </r>
       <r>   -9.0215    1.0000 </r>
       <r>   -8.7556    1.0000 </r>
       <r>   -8.7219    1.0000 </r>
       <r>   -8.6400    1.0000 </r>
       <r>   -8.5243    1.0000 </r>
       <r>   -8.4872    1.0000 </r>
       <r>   -8.4870    1.0000 </r>
       <r>   -8.3955    1.0000 </r>
       <r>   -8.3902    1.0000 </r>
       <r>   -8.3899    1.0000 </r>
       <r>   -8.3816    1.0000 </r>
       <r>   -8.3222    1.0000 </r>
       <r>   -8.3220    1.0000 </r>
       <r>   -8.2409    1.0000 </r>
       <r>   -8.2408    1.0000 </r>
       <r>   -8.1617    1.0000 </r>
       <r>   -8.1388    1.0000 </r>
       <r>   -8.1387    1.0000 </r>
       <r>   -8.0544    1.0000 </r>
       <r>   -8.0542    1.0000 </r>
       <r>   -7.9585    1.0000 </r>
       <r>   -7.9052    1.0000 </r>
       <r>   -7.9051    1.0000 </r>
       <r>   -7.1819    1.0000 </r>
       <r>   -7.1815    1.0000 </r>
       <r>   -7.1629    1.0000 </r>
       <r>   -6.8665    1.0000 </r>
       <r>   -6.8206    1.0000 </r>
       <r>   -6.8199    1.0000 </r>
       <r>   -6.4382    1.0000 </r>
       <r>   -6.4375    1.0000 </r>
       <r>   -6.4188    1.0000 </r>
       <r>   -6.2856    1.0000 </r>
       <r>   -6.1995    1.0000 </r>
       <r>   -6.1993    1.0000 </r>
       <r>   -6.1688    1.0000 </r>
       <r>   -6.1386    1.0000 </r>
       <r>   -6.1386    1.0000 </r>
       <r>   -6.0042    1.0000 </r>
       <r>   -5.9601    1.0000 </r>
       <r>   -5.9600    1.0000 </r>
       <r>   -5.8845    1.0000 </r>
       <r>   -5.8844    1.0000 </r>
       <r>   -5.7125    1.0000 </r>
       <r>   -5.7119    1.0000 </r>
       <r>   -5.4140    1.0000 </r>
       <r>   -5.4116    1.0000 </r>
       <r>   -5.4109    1.0000 </r>
       <r>   -5.2039    1.0000 </r>
       <r>   -5.2008    1.0000 </r>
       <r>   -5.2006    1.0000 </r>
       <r>   -2.7804    0.0000 </r>
       <r>   -2.7803    0.0000 </r>
       <r>   -2.5196    0.0000 </r>
       <r>   -2.5195    0.0000 </r>
       <r>   -1.9356    0.0000 </r>
       <r>   -1.9337    0.0000 </r>
       <r>   -1.9331    0.0000 </r>
       <r>   -1.6535    0.0000 </r>
       <r>   -1.3692    0.0000 </r>
       <r>   -1.2375    0.0000 </r>
       <r>   -1.2371    0.0000 </r>
       <r>   -1.2285    0.0000 </r>
       <r>   -1.0856    0.0000 </r>
       <r>   -1.0853    0.0000 </r>
       <r>   -1.0829    0.0000 </r>
       <r>   -0.7487    0.0000 </r>
       <r>   -0.7485    0.0000 </r>
       <r>   -0.7379    0.0000 </r>
       <r>   -0.5034    0.0000 </r>
       <r>   -0.3887    0.0000 </r>
       <r>   -0.3886    0.0000 </r>
       <r>   -0.2403    0.0000 </r>
       <r>   -0.2402    0.0000 </r>
       <r>   -0.1465    0.0000 </r>
       <r>   -0.0145    0.0000 </r>
       <r>   -0.0143    0.0000 </r>
       <r>    0.0174    0.0000 </r>
       <r>    0.0284    0.0000 </r>
       <r>    0.0284    0.0000 </r>
       <r>    0.1305    0.0000 </r>
       <r>    0.1306    0.0000 </r>
       <r>    0.2618    0.0000 </r>
       <r>    0.3846    0.0000 </r>
       <r>    0.3847    0.0000 </r>
       <r>    0.3922    0.0000 </r>
       <r>    0.4491    0.0000 </r>
       <r>    0.4761    0.0000 </r>
       <r>    0.4764    0.0000 </r>
       <r>    0.4931    0.0000 </r>
       <r>    0.5170    0.0000 </r>
       <r>    0.5660    0.0000 </r>
       <r>    0.6275    0.0000 </r>
       <r>    0.6277    0.0000 </r>
       <r>    0.6937    0.0000 </r>
       <r>    0.6947    0.0000 </r>
       <r>    0.7258    0.0000 </r>
       <r>    0.7442    0.0000 </r>
       <r>    0.7446    0.0000 </r>
       <r>    0.8095    0.0000 </r>
       <r>    0.8120    0.0000 </r>
       <r>    0.8133    0.0000 </r>
       <r>    0.8591    0.0000 </r>
       <r>    0.8680    0.0000 </r>
       <r>    0.8979    0.0000 </r>
       <r>    0.9521    0.0000 </r>
       <r>    0.9526    0.0000 </r>
       <r>    1.0058    0.0000 </r>
       <r>    1.0058    0.0000 </r>
       <r>    1.0542    0.0000 </r>
       <r>    1.0545    0.0000 </r>
       <r>    1.0620    0.0000 </r>
       <r>    1.0862    0.0000 </r>
      </set>
      <set comment="kpoint 2">
       <r>  -25.3928    1.0000 </r>
       <r>  -25.1392    1.0000 </r>
       <r>  -24.4913    1.0000 </r>
       <r>  -24.4913    1.0000 </r>
       <r>  -24.4906    1.0000 </r>
       <r>  -22.9393    1.0000 </r>
       <r>  -22.9392    1.0000 </r>
       <r>  -22.9386    1.0000 </r>
       <r>  -22.4740    1.0000 </r>
       <r>  -22.4740    1.0000 </r>
       <r>  -22.2289    1.0000 </r>
       <r>  -22.2286    1.0000 </r>
       <r>  -22.0913    1.0000 </r>
       <r>  -22.0690    1.0000 </r>
       <r>  -22.0685    1.0000 </r>
       <r>  -21.3213    1.0000 </r>
       <r>  -21.2571    1.0000 </r>
       <r>  -21.2565    1.0000 </r>
       <r>  -21.0842    1.0000 </r>
       <r>  -21.0220    1.0000 </r>
       <r>  -21.0219    1.0000 </r>
       <r>  -19.4417    1.0000 </r>
       <r>  -19.4416    1.0000 </r>
       <r>  -19.3612    1.0000 </r>
       <r>  -19.1184    1.0000 </r>
       <r>  -19.1182    1.0000 </r>
       <r>  -18.9507    1.0000 </r>
       <r>  -18.5105    1.0000 </r>
       <r>  -18.5073    1.0000 </r>
       <r>  -18.5066    1.0000 </r>
       <r>  -18.2875    1.0000 </r>
       <r>  -18.2873    1.0000 </r>
       <r>  -18.2694    1.0000 </r>
       <r>  -18.0976    1.0000 </r>
       <r>  -18.0974    1.0000 </r>
       <r>  -17.8485    1.0000 </r>
       <r>  -17.1397    1.0000 </r>
       <r>  -17.1390    1.0000 </r>
       <r>  -16.4749    1.0000 </r>
       <r>  -16.3727    1.0000 </r>
       <r>  -16.3668    1.0000 </r>
       <r>  -15.8699    1.0000 </r>
       <r>  -15.8694    1.0000 </r>
       <r>  -15.8488    1.0000 </r>
       <r>  -15.5872    1.0000 </r>
       <r>  -15.5860    1.0000 </r>
       <r>  -15.2243    1.0000 </r>
       <r>  -15.0925    1.0000 </r>
       <r>  -14.9868    1.0000 </r>
       <r>  -14.9055    1.0000 </r>
       <r>  -14.9054    1.0000 </r>
       <r>  -14.6861    1.0000 </r>
       <r>  -14.6860    1.0000 </r>
       <r>  -14.6503    1.0000 </r>
       <r>  -14.2015    1.0000 </r>
       <r>  -14.2011    1.0000 </r>
       <r>  -14.0624    1.0000 </r>
       <r>  -14.0623    1.0000 </r>
       <r>  -13.4562    1.0000 </r>
       <r>  -13.4399    1.0000 </r>
       <r>  -13.4398    1.0000 </r>
       <r>  -13.3219    1.0000 </r>
       <r>  -13.2804    1.0000 </r>
       <r>  -13.0832    1.0000 </r>
       <r>  -13.0773    1.0000 </r>
       <r>  -12.9655    1.0000 </r>
       <r>  -12.9653    1.0000 </r>
       <r>  -12.8136    1.0000 </r>
       <r>  -12.6621    1.0000 </r>
       <r>  -12.6617    1.0000 </r>
       <r>  -12.1319    1.0000 </r>
       <r>  -11.8913    1.0000 </r>
       <r>  -11.8912    1.0000 </r>
       <r>  -11.7097    1.0000 </r>
       <r>  -11.7074    1.0000 </r>
       <r>  -11.7071    1.0000 </r>
       <r>  -11.5205    1.0000 </r>
       <r>  -11.5204    1.0000 </r>
       <r>  -11.2616    1.0000 </r>
       <r>  -11.2440    1.0000 </r>
       <r>  -11.1944    1.0000 </r>
       <r>  -11.1942    1.0000 </r>
       <r>  -11.0366    1.0000 </r>
       <r>  -11.0023    1.0000 </r>
       <r>  -10.9983    1.0000 </r>
       <r>  -10.9975    1.0000 </r>
       <r>  -10.8290    1.0000 </r>
       <r>  -10.8038    1.0000 </r>
       <r>  -10.8033    1.0000 </r>
       <r>  -10.7185    1.0000 </r>
       <r>  -10.6244    1.0000 </r>
       <r>  -10.6241    1.0000 </r>
       <r>  -10.5276    1.0000 </r>
       <r>  -10.2383    1.0000 </r>
       <r>  -10.2380    1.0000 </r>
       <r>  -10.1872    1.0000 </r>
       <r>  -10.1591    1.0000 </r>
       <r>  -10.1576    1.0000 </r>
       <r>  -10.1299    1.0000 </r>
       <r>  -10.0576    1.0000 </r>
       <r>  -10.0236    1.0000 </r>
       <r>  -10.0228    1.0000 </r>
       <r>   -9.8918    1.0000 </r>
       <r>   -9.8668    1.0000 </r>
       <r>   -9.8662    1.0000 </r>
       <r>   -9.6020    1.0000 </r>
       <r>   -9.6018    1.0000 </r>
       <r>   -9.4542    1.0000 </r>
       <r>   -9.4540    1.0000 </r>
       <r>   -9.2323    1.0000 </r>
       <r>   -9.2320    1.0000 </r>
       <r>   -9.0214    1.0000 </r>
       <r>   -8.7554    1.0000 </r>
       <r>   -8.7219    1.0000 </r>
       <r>   -8.6400    1.0000 </r>
       <r>   -8.5249    1.0000 </r>
       <r>   -8.4872    1.0000 </r>
       <r>   -8.4868    1.0000 </r>
       <r>   -8.3955    1.0000 </r>
       <r>   -8.3902    1.0000 </r>
       <r>   -8.3899    1.0000 </r>
       <r>   -8.3816    1.0000 </r>
       <r>   -8.3221    1.0000 </r>
       <r>   -8.3219    1.0000 </r>
       <r>   -8.2409    1.0000 </r>
       <r>   -8.2408    1.0000 </r>
       <r>   -8.1618    1.0000 </r>
       <r>   -8.1388    1.0000 </r>
       <r>   -8.1387    1.0000 </r>
       <r>   -8.0544    1.0000 </r>
       <r>   -8.0542    1.0000 </r>
       <r>   -7.9585    1.0000 </r>
       <r>   -7.9052    1.0000 </r>
       <r>   -7.9051    1.0000 </r>
       <r>   -7.1819    1.0000 </r>
       <r>   -7.1815    1.0000 </r>
       <r>   -7.1629    1.0000 </r>
       <r>   -6.8664    1.0000 </r>
       <r>   -6.8207    1.0000 </r>
       <r>   -6.8199    1.0000 </r>
       <r>   -6.4382    1.0000 </r>
       <r>   -6.4375    1.0000 </r>
       <r>   -6.4188    1.0000 </r>
       <r>   -6.2855    1.0000 </r>
       <r>   -6.1995    1.0000 </r>
       <r>   -6.1993    1.0000 </r>
       <r>   -6.1688    1.0000 </r>
       <r>   -6.1387    1.0000 </r>
       <r>   -6.1386    1.0000 </r>
       <r>   -6.0041    1.0000 </r>
       <r>   -5.9601    1.0000 </r>
       <r>   -5.9600    1.0000 </r>
       <r>   -5.8845    1.0000 </r>
       <r>   -5.8844    1.0000 </r>
       <r>   -5.7125    1.0000 </r>
       <r>   -5.7119    1.0000 </r>
       <r>   -5.4140    1.0000 </r>
       <r>   -5.4116    1.0000 </r>
       <r>   -5.4109    1.0000 </r>
       <r>   -5.2038    1.0000 </r>
       <r>   -5.2008    1.0000 </r>
       <r>   -5.2006    1.0000 </r>
       <r>   -2.7804    0.0000 </r>
       <r>   -2.7803    0.0000 </r>
       <r>   -2.5196    0.0000 </r>
       <r>   -2.5195    0.0000 </r>
       <r>   -1.9356    0.0000 </r>
       <r>   -1.9337    0.0000 </r>
       <r>   -1.9331    0.0000 </r>
       <r>   -1.6535    0.0000 </r>
       <r>   -1.3692    0.0000 </r>
       <r>   -1.2375    0.0000 </r>
       <r>   -1.2371    0.0000 </r>
       <r>   -1.2285    0.0000 </r>
       <r>   -1.0855    0.0000 </r>
       <r>   -1.0853    0.0000 </r>
       <r>   -1.0829    0.0000 </r>
       <r>   -0.7487    0.0000 </r>
       <r>   -0.7485    0.0000 </r>
       <r>   -0.7379    0.0000 </r>
       <r>   -0.5034    0.0000 </r>
       <r>   -0.3887    0.0000 </r>
       <r>   -0.3887    0.0000 </r>
       <r>   -0.2403    0.0000 </r>
       <r>   -0.2402    0.0000 </r>
       <r>   -0.1463    0.0000 </r>
       <r>   -0.0145    0.0000 </r>
       <r>   -0.0143    0.0000 </r>
       <r>    0.0174    0.0000 </r>
       <r>    0.0284    0.0000 </r>
       <r>    0.0286    0.0000 </r>
       <r>    0.1303    0.0000 </r>
       <r>    0.1305    0.0000 </r>
       <r>    0.2619    0.0000 </r>
       <r>    0.3786    0.0000 </r>
       <r>    0.3841    0.0000 </r>
       <r>    0.3978    0.0000 </r>
       <r>    0.4490    0.0000 </r>
       <r>    0.4744    0.0000 </r>
       <r>    0.4771    0.0000 </r>
       <r>    0.4952    0.0000 </r>
       <r>    0.5180    0.0000 </r>
       <r>    0.5652    0.0000 </r>
       <r>    0.6276    0.0000 </r>
       <r>    0.6283    0.0000 </r>
       <r>    0.6933    0.0000 </r>
       <r>    0.6942    0.0000 </r>
       <r>    0.7250    0.0000 </r>
       <r>    0.7446    0.0000 </r>
       <r>    0.7451    0.0000 </r>
       <r>    0.8039    0.0000 </r>
       <r>    0.8132    0.0000 </r>
       <r>    0.8185    0.0000 </r>
       <r>    0.8600    0.0000 </r>
       <r>    0.8673    0.0000 </r>
       <r>    0.8980    0.0000 </r>
       <r>    0.9519    0.0000 </r>
       <r>    0.9526    0.0000 </r>
       <r>    1.0052    0.0000 </r>
       <r>    1.0054    0.0000 </r>
       <r>    1.0465    0.0000 </r>
       <r>    1.0538    0.0000 </r>
       <r>    1.0701    0.0000 </r>
       <r>    1.0867    0.0000 </r>
      </set>
      <set comment="kpoint 3">
       <r>  -25.3928    1.0000 </r>
       <r>  -25.1392    1.0000 </r>
       <r>  -24.4913    1.0000 </r>
       <r>  -24.4913    1.0000 </r>
       <r>  -24.4906    1.0000 </r>
       <r>  -22.9393    1.0000 </r>
       <r>  -22.9392    1.0000 </r>
       <r>  -22.9386    1.0000 </r>
       <r>  -22.4740    1.0000 </r>
       <r>  -22.4740    1.0000 </r>
       <r>  -22.2289    1.0000 </r>
       <r>  -22.2286    1.0000 </r>
       <r>  -22.0912    1.0000 </r>
       <r>  -22.0690    1.0000 </r>
       <r>  -22.0685    1.0000 </r>
       <r>  -21.3212    1.0000 </r>
       <r>  -21.2571    1.0000 </r>
       <r>  -21.2565    1.0000 </r>
       <r>  -21.0842    1.0000 </r>
       <r>  -21.0220    1.0000 </r>
       <r>  -21.0219    1.0000 </r>
       <r>  -19.4417    1.0000 </r>
       <r>  -19.4415    1.0000 </r>
       <r>  -19.3615    1.0000 </r>
       <r>  -19.1184    1.0000 </r>
       <r>  -19.1174    1.0000 </r>
       <r>  -18.9515    1.0000 </r>
       <r>  -18.5105    1.0000 </r>
       <r>  -18.5072    1.0000 </r>
       <r>  -18.5065    1.0000 </r>
       <r>  -18.2875    1.0000 </r>
       <r>  -18.2871    1.0000 </r>
       <r>  -18.2694    1.0000 </r>
       <r>  -18.0976    1.0000 </r>
       <r>  -18.0966    1.0000 </r>
       <r>  -17.8501    1.0000 </r>
       <r>  -17.1397    1.0000 </r>
       <r>  -17.1367    1.0000 </r>
       <r>  -16.4893    1.0000 </r>
       <r>  -16.3727    1.0000 </r>
       <r>  -16.3522    1.0000 </r>
       <r>  -15.8700    1.0000 </r>
       <r>  -15.8694    1.0000 </r>
       <r>  -15.8487    1.0000 </r>
       <r>  -15.5906    1.0000 </r>
       <r>  -15.5860    1.0000 </r>
       <r>  -15.2243    1.0000 </r>
       <r>  -15.0897    1.0000 </r>
       <r>  -14.9868    1.0000 </r>
       <r>  -14.9055    1.0000 </r>
       <r>  -14.9053    1.0000 </r>
       <r>  -14.6866    1.0000 </r>
       <r>  -14.6860    1.0000 </r>
       <r>  -14.6510    1.0000 </r>
       <r>  -14.2015    1.0000 </r>
       <r>  -14.2010    1.0000 </r>
       <r>  -14.0625    1.0000 </r>
       <r>  -14.0623    1.0000 </r>
       <r>  -13.4562    1.0000 </r>
       <r>  -13.4400    1.0000 </r>
       <r>  -13.4398    1.0000 </r>
       <r>  -13.3219    1.0000 </r>
       <r>  -13.2804    1.0000 </r>
       <r>  -13.0832    1.0000 </r>
       <r>  -13.0773    1.0000 </r>
       <r>  -12.9654    1.0000 </r>
       <r>  -12.9653    1.0000 </r>
       <r>  -12.8144    1.0000 </r>
       <r>  -12.6621    1.0000 </r>
       <r>  -12.6606    1.0000 </r>
       <r>  -12.1325    1.0000 </r>
       <r>  -11.8913    1.0000 </r>
       <r>  -11.8911    1.0000 </r>
       <r>  -11.7097    1.0000 </r>
       <r>  -11.7074    1.0000 </r>
       <r>  -11.7071    1.0000 </r>
       <r>  -11.5208    1.0000 </r>
       <r>  -11.5205    1.0000 </r>
       <r>  -11.2615    1.0000 </r>
       <r>  -11.2443    1.0000 </r>
       <r>  -11.1938    1.0000 </r>
       <r>  -11.1928    1.0000 </r>
       <r>  -11.0384    1.0000 </r>
       <r>  -11.0023    1.0000 </r>
       <r>  -10.9990    1.0000 </r>
       <r>  -10.9962    1.0000 </r>
       <r>  -10.8304    1.0000 </r>
       <r>  -10.8036    1.0000 </r>
       <r>  -10.8015    1.0000 </r>
       <r>  -10.7190    1.0000 </r>
       <r>  -10.6251    1.0000 </r>
       <r>  -10.6240    1.0000 </r>
       <r>  -10.5264    1.0000 </r>
       <r>  -10.2383    1.0000 </r>
       <r>  -10.2379    1.0000 </r>
       <r>  -10.1877    1.0000 </r>
       <r>  -10.1625    1.0000 </r>
       <r>  -10.1567    1.0000 </r>
       <r>  -10.1298    1.0000 </r>
       <r>  -10.0578    1.0000 </r>
       <r>  -10.0235    1.0000 </r>
       <r>  -10.0208    1.0000 </r>
       <r>   -9.8919    1.0000 </r>
[...]
       <r>   -22.9296    56.1373    15.4519 </r>
       <r>   -22.8325     0.0000    16.0000 </r>
       <r>   -22.7353     0.0000    16.0000 </r>
       <r>   -22.6382     0.0000    16.0000 </r>
       <r>   -22.5411     0.0000    16.0000 </r>
       <r>   -22.4440    41.1870    20.0000 </r>
       <r>   -22.3469     0.0000    20.0000 </r>
       <r>   -22.2498     0.0687    20.0067 </r>
       <r>   -22.1526    41.1188    24.0000 </r>
       <r>   -22.0555    60.9251    29.9169 </r>
       <r>   -21.9584     0.0000    30.0000 </r>
       <r>   -21.8613     0.0000    30.0000 </r>
       <r>   -21.7642     0.0000    30.0000 </r>
       <r>   -21.6671     0.0000    30.0000 </r>
       <r>   -21.5699     0.0000    30.0000 </r>
       <r>   -21.4728     0.0000    30.0000 </r>
       <r>   -21.3757     0.0000    30.0000 </r>
       <r>   -21.2786    20.6859    32.0090 </r>
       <r>   -21.1815    41.0953    36.0000 </r>
       <r>   -21.0844     8.7820    36.8529 </r>
       <r>   -20.9872    41.1874    42.0000 </r>
       <r>   -20.8901     0.0000    42.0000 </r>
       <r>   -20.7930     0.0000    42.0000 </r>
       <r>   -20.6959     0.0000    42.0000 </r>
       <r>   -20.5988     0.0000    42.0000 </r>
       <r>   -20.5017     0.0000    42.0000 </r>
       <r>   -20.4045     0.0000    42.0000 </r>
       <r>   -20.3074     0.0000    42.0000 </r>
       <r>   -20.2103     0.0000    42.0000 </r>
       <r>   -20.1132     0.0000    42.0000 </r>
       <r>   -20.0161     0.0000    42.0000 </r>
       <r>   -19.9190     0.0000    42.0000 </r>
       <r>   -19.8218     0.0000    42.0000 </r>
       <r>   -19.7247     0.0000    42.0000 </r>
       <r>   -19.6276     0.0000    42.0000 </r>
       <r>   -19.5305     0.0000    42.0000 </r>
       <r>   -19.4334    30.2908    44.9417 </r>
       <r>   -19.3363    20.5931    47.9999 </r>
       <r>   -19.2391     0.0000    48.0000 </r>
       <r>   -19.1420     0.0096    48.0009 </r>
       <r>   -19.0449    39.2658    51.8143 </r>
       <r>   -18.9478    18.9024    53.9030 </r>
       <r>   -18.8507     0.0000    54.0000 </r>
       <r>   -18.7536     0.0000    54.0000 </r>
       <r>   -18.6564     0.0000    54.0000 </r>
       <r>   -18.5593     0.0000    54.0000 </r>
       <r>   -18.4622    61.7812    60.0000 </r>
       <r>   -18.3651     0.0000    60.0000 </r>
       <r>   -18.2680    51.6516    65.0162 </r>
       <r>   -18.1709     0.0000    66.0000 </r>
       <r>   -18.0737    27.0328    68.6253 </r>
       <r>   -17.9766    14.2659    70.2190 </r>
       <r>   -17.8795     9.9738    71.4690 </r>
       <r>   -17.7824     3.7731    72.0000 </r>
       <r>   -17.6853     0.0000    72.0000 </r>
       <r>   -17.5882     0.0000    72.0000 </r>
       <r>   -17.4910     0.0000    72.0000 </r>
       <r>   -17.3939     0.0000    72.0000 </r>
       <r>   -17.2968     0.0000    72.0000 </r>
       <r>   -17.1997     0.0000    72.0000 </r>
       <r>   -17.1026    25.5326    74.4796 </r>
       <r>   -17.0055     4.2701    74.9815 </r>
       <r>   -16.9083     9.2638    76.0000 </r>
       <r>   -16.8112     4.6223    76.4489 </r>
       <r>   -16.7141     5.6428    77.1817 </r>
       <r>   -16.6170     2.4286    77.4692 </r>
       <r>   -16.5199     2.5110    77.7439 </r>
       <r>   -16.4227     2.0593    78.0000 </r>
       <r>   -16.3256    23.0882    80.2423 </r>
       <r>   -16.2285     2.1415    80.5080 </r>
       <r>   -16.1314     2.2521    80.7854 </r>
       <r>   -16.0343     4.9946    81.3186 </r>
       <r>   -15.9372     4.9074    82.0100 </r>
       <r>   -15.8400    50.5408    87.1086 </r>
       <r>   -15.7429    10.4759    89.0842 </r>
       <r>   -15.6458     3.6780    89.4908 </r>
       <r>   -15.5487    25.0552    92.0000 </r>
       <r>   -15.4516     0.0000    92.0000 </r>
       <r>   -15.3545     0.0000    92.0000 </r>
       <r>   -15.2573     0.0000    92.0000 </r>
       <r>   -15.1602    20.5937    94.0000 </r>
       <r>   -15.0631     4.1683    94.4048 </r>
       <r>   -14.9660    26.7738    97.1003 </r>
       <r>   -14.8689    44.9550   101.9999 </r>
       <r>   -14.7718     0.3196   102.0310 </r>
       <r>   -14.6746    37.5009   106.1094 </r>
       <r>   -14.5775     4.4541   108.0000 </r>
       <r>   -14.4804     0.0000   108.0000 </r>
       <r>   -14.3833     0.0000   108.0000 </r>
       <r>   -14.2862     0.0000   108.0000 </r>
       <r>   -14.1891    36.5763   111.5522 </r>
       <r>   -14.0919     0.0007   112.0001 </r>
       <r>   -13.9948    41.1867   116.0000 </r>
       <r>   -13.8977     0.0000   116.0000 </r>
       <r>   -13.8006     0.0000   116.0000 </r>
       <r>   -13.7035     0.0000   116.0000 </r>
       <r>   -13.6064     0.0000   116.0000 </r>
       <r>   -13.5092     0.0000   116.0000 </r>
       <r>   -13.4121    61.7800   121.9999 </r>
       <r>   -13.3150    17.1690   123.6674 </r>
       <r>   -13.2179    20.5937   126.0000 </r>
       <r>   -13.1208     0.0000   126.0000 </r>
       <r>   -13.0237    41.1875   130.0000 </r>
       <r>   -12.9265    41.1875   134.0000 </r>
       <r>   -12.8294    14.1743   135.3766 </r>
       <r>   -12.7323     0.0000   136.0000 </r>
       <r>   -12.6352    27.3565   138.6568 </r>
       <r>   -12.5381    10.6273   140.0000 </r>
       <r>   -12.4410     0.0000   140.0000 </r>
       <r>   -12.3438     0.0000   140.0000 </r>
       <r>   -12.2467     0.0000   140.0000 </r>
       <r>   -12.1496    12.8121   141.2443 </r>
       <r>   -12.0525     1.3646   142.0000 </r>
       <r>   -11.9554     0.0000   142.0000 </r>
       <r>   -11.8583    41.1869   145.9999 </r>
       <r>   -11.7611     0.0000   146.0000 </r>
       <r>   -11.6640    61.7812   152.0000 </r>
       <r>   -11.5669     0.0000   152.0000 </r>
       <r>   -11.4698    41.1875   156.0000 </r>
       <r>   -11.3727     0.0000   156.0000 </r>
       <r>   -11.2756     0.3202   156.0311 </r>
       <r>   -11.1784    35.7343   161.0069 </r>
       <r>   -11.0813    38.3226   165.2555 </r>
       <r>   -10.9842    51.1051   170.4646 </r>
       <r>   -10.8871     3.4121   172.0000 </r>
       <r>   -10.7900    40.6686   175.9496 </r>
       <r>   -10.6929    34.3180   180.0000 </r>
       <r>   -10.5957    41.1839   183.9997 </r>
       <r>   -10.4986     6.4160   184.6231 </r>
       <r>   -10.4015    12.0097   186.0000 </r>
       <r>   -10.3044     1.4734   186.1431 </r>
       <r>   -10.2073    51.1619   191.7365 </r>
       <r>   -10.1101    44.6093   197.6004 </r>
       <r>   -10.0130    40.1841   201.9026 </r>
       <r>    -9.9159    14.8760   204.0117 </r>
       <r>    -9.8188    41.0164   208.6541 </r>
       <r>    -9.7217    10.0330   209.7744 </r>
       <r>    -9.6246    13.5236   211.3135 </r>
       <r>    -9.5274    24.3587   214.0000 </r>
       <r>    -9.4303    41.1682   217.9981 </r>
       <r>    -9.3332     0.0000   218.0000 </r>
       <r>    -9.2361    13.1013   219.2724 </r>
       <r>    -9.1390     0.0000   222.0000 </r>
       <r>    -9.0419     0.0074   222.0007 </r>
       <r>    -8.9447    20.5864   224.0000 </r>
       <r>    -8.8476     0.0000   224.0000 </r>
       <r>    -8.7505     3.3129   224.3217 </r>
       <r>    -8.6534    31.7747   228.0587 </r>
       <r>    -8.5563    14.6049   231.4184 </r>
       <r>    -8.4592    44.3788   235.9435 </r>
       <r>    -8.3620    82.3401   243.9966 </r>
       <r>    -8.2649    41.1929   248.0005 </r>
       <r>    -8.1678    53.9820   253.2431 </r>
       <r>    -8.0707    41.4046   258.0262 </r>
       <r>    -7.9736    20.4904   262.1915 </r>
       <r>    -7.8765    41.1865   267.9999 </r>
       <r>    -7.7793     0.0000   268.0000 </r>
       <r>    -7.6822     0.0000   268.0000 </r>
       <r>    -7.5851     0.0000   268.0000 </r>
       <r>    -7.4880     0.0000   268.0000 </r>
       <r>    -7.3909     0.0000   268.0000 </r>
       <r>    -7.2938     0.0000   268.0000 </r>
       <r>    -7.1966     0.4882   268.0474 </r>
       <r>    -7.0995    33.9333   274.0000 </r>
       <r>    -7.0024     0.0000   274.0000 </r>
       <r>    -6.9053     0.0000   274.0000 </r>
       <r>    -6.8082    60.6455   279.8897 </r>
       <r>    -6.7111     0.0000   280.0000 </r>
       <r>    -6.6139     0.0000   280.0000 </r>
       <r>    -6.5168     0.0000   280.0000 </r>
       <r>    -6.4197    50.2426   284.8794 </r>
       <r>    -6.3226     0.0000   286.0000 </r>
       <r>    -6.2255    20.5956   288.0002 </r>
       <r>    -6.1284   101.6257   297.8698 </r>
       <r>    -6.0312     0.0002   298.0000 </r>
       <r>    -5.9341    61.7753   303.9994 </r>
       <r>    -5.8370    41.1875   308.0000 </r>
       <r>    -5.7399     0.0019   308.0002 </r>
       <r>    -5.6428    41.1855   312.0000 </r>
       <r>    -5.5457     0.0000   312.0000 </r>
       <r>    -5.4485     0.0000   312.0000 </r>
       <r>    -5.3514    61.7812   318.0000 </r>
       <r>    -5.2543     0.0000   318.0000 </r>
       <r>    -5.1572    61.7812   324.0000 </r>
       <r>    -5.0601     0.0000   324.0000 </r>
       <r>    -4.9630     0.0000   324.0000 </r>
       <r>    -4.8658     0.0000   324.0000 </r>
       <r>    -4.7687     0.0000   324.0000 </r>
       <r>    -4.6716     0.0000   324.0000 </r>
       <r>    -4.5745     0.0000   324.0000 </r>
       <r>    -4.4774     0.0000   324.0000 </r>
       <r>    -4.3802     0.0000   324.0000 </r>
       <r>    -4.2831     0.0000   324.0000 </r>
       <r>    -4.1860     0.0000   324.0000 </r>
       <r>    -4.0889     0.0000   324.0000 </r>
       <r>    -3.9918     0.0000   324.0000 </r>
       <r>    -3.8947     0.0000   324.0000 </r>
       <r>    -3.7975     0.0000   324.0000 </r>
       <r>    -3.7004     0.0000   324.0000 </r>
       <r>    -3.6033     0.0000   324.0000 </r>
       <r>    -3.5062     0.0000   324.0000 </r>
       <r>    -3.4091     0.0000   324.0000 </r>
       <r>    -3.3120     0.0000   324.0000 </r>
       <r>    -3.2148     0.0000   324.0000 </r>
       <r>    -3.1177     0.0000   324.0000 </r>
       <r>    -3.0206     0.0000   324.0000 </r>
       <r>    -2.9235     0.0000   324.0000 </r>
       <r>    -2.8264     0.0000   324.0000 </r>
       <r>    -2.7293    41.1875   328.0000 </r>
       <r>    -2.6321     0.0000   328.0000 </r>
       <r>    -2.5350     0.7693   328.0747 </r>
       <r>    -2.4379     0.0000   332.0000 </r>
       <r>    -2.3408     0.0000   332.0000 </r>
       <r>    -2.2437     0.0000   332.0000 </r>
       <r>    -2.1466     0.0000   332.0000 </r>
       <r>    -2.0494     0.0000   332.0000 </r>
       <r>    -1.9523     0.3434   332.0333 </r>
       <r>    -1.8552    51.9092   338.0000 </r>
       <r>    -1.7581     0.0000   338.0000 </r>
       <r>    -1.6610     1.2577   338.1221 </r>
       <r>    -1.5639     0.0000   340.0000 </r>
       <r>    -1.4667     0.0000   340.0000 </r>
       <r>    -1.3696    14.6893   341.4266 </r>
       <r>    -1.2725     0.0000   342.0000 </r>
       <r>    -1.1754    61.7812   348.0000 </r>
       <r>    -1.0783    49.9161   352.8477 </r>
       <r>    -0.9812     0.0000   354.0000 </r>
       <r>    -0.8840     0.0000   354.0000 </r>
       <r>    -0.7869     0.0000   354.0000 </r>
       <r>    -0.6898    61.7812   360.0000 </r>
       <r>    -0.5927     0.0000   360.0000 </r>
       <r>    -0.4956    17.2189   361.6722 </r>
       <r>    -0.3985     4.6443   362.4510 </r>
       <r>    -0.3013     0.0000   366.0000 </r>
       <r>    -0.2042    41.1875   370.0000 </r>
       <r>    -0.1071    15.1046   371.4669 </r>
       <r>    -0.0100    33.0133   375.2062 </r>
       <r>     0.0871    69.2834   382.7301 </r>
       <r>     0.1842    26.4206   386.0000 </r>
       <r>     0.2814    26.2302   388.5474 </r>
       <r>     0.3785    24.8369   391.6790 </r>
       <r>     0.4756    44.8143   396.4191 </r>
       <r>     0.5727    57.3606   403.2723 </r>
       <r>     0.6698    72.2812   410.7874 </r>
       <r>     0.7669    72.2891   418.8223 </r>
       <r>     0.8641    83.6463   427.8914 </r>
       <r>     0.9612    69.5866   436.3266 </r>
       <r>     1.0583    82.6900   446.2661 </r>
       <r>     1.1554     7.5478   448.0000 </r>
       <r>     1.2525     0.0000   448.0000 </r>
       <r>     1.3496     0.0000   448.0000 </r>
       <r>     1.4468     0.0000   448.0000 </r>
       <r>     1.5439     0.0000   448.0000 </r>
       <r>     1.6410     0.0000   448.0000 </r>
       <r>     1.7381     0.0000   448.0000 </r>
       <r>     1.8352     0.0000   448.0000 </r>
       <r>     1.9324     0.0000   448.0000 </r>
       <r>     2.0295     0.0000   448.0000 </r>
       <r>     2.1266     0.0000   448.0000 </r>
       <r>     2.2237     0.0000   448.0000 </r>
       <r>     2.3208     0.0000   448.0000 </r>
       <r>     2.4179     0.0000   448.0000 </r>
      </set>
     </set>
    </array>
   </total>
  </dos>
 </calculation>
 <structure name="finalpos" >
  <crystal>
   <varray name="basis" >
    <v>      29.26889189       0.00000000       0.00000000 </v>
    <v>     -14.63444594      25.34760391       0.00000000 </v>
    <v>       0.00000000       0.00000000      20.00000000 </v>
   </varray>
   <i name="volume">  14837.92557170 </i>
   <varray name="rec_basis" >
    <v>       0.03416597       0.01972573       0.00000000 </v>
    <v>       0.00000000       0.03945146       0.00000000 </v>
    <v>       0.00000000       0.00000000       0.05000000 </v>
   </varray>
  </crystal>
  <varray name="positions" >
   <v>       0.04454093       0.52227046       0.39673336 </v>
   <v>       0.51432633       0.88153495       0.50415007 </v>
   <v>       0.46487432       0.78302316       0.50294016 </v>
   <v>       0.36720862       0.88153495       0.50415007 </v>
   <v>       0.31814884       0.78302316       0.50294016 </v>
   <v>       0.21697684       0.68185116       0.50294016 </v>
   <v>       0.11846505       0.63279138       0.50415007 </v>
   <v>       0.21697684       0.53512568       0.50294016 </v>
   <v>       0.11846505       0.48567367       0.50415007 </v>
   <v>       0.31814884       0.53512568       0.50294016 </v>
   <v>       0.36720862       0.48567367       0.50415007 </v>
   <v>       0.51432633       0.63279138       0.50415007 </v>
   <v>       0.46487432       0.68185116       0.50294016 </v>
   <v>       0.48567165       0.11849795       0.50399799 </v>
   <v>       0.53515332       0.21703834       0.50377269 </v>
   <v>       0.63282630       0.11849795       0.50399799 </v>
   <v>       0.68188502       0.21703834       0.50377269 </v>
   <v>       0.78296166       0.31811498       0.50377269 </v>
   <v>       0.88150205       0.36717370       0.50399799 </v>
   <v>       0.78296166       0.46484668       0.50377269 </v>
   <v>       0.88150205       0.51432835       0.50399799 </v>
   <v>       0.68188502       0.46484668       0.50377269 </v>
   <v>       0.63282630       0.51432835       0.50399799 </v>
   <v>       0.48567165       0.36717370       0.50399799 </v>
   <v>       0.53515332       0.31811498       0.50377269 </v>
   <v>       0.54413642       0.45586358       0.62896320 </v>
   <v>       0.51303958       0.48696042       0.66713099 </v>
   <v>       0.54413642       0.08827285       0.62896320 </v>
   <v>       0.51303958       0.02607917       0.66713099 </v>
   <v>       0.91172715       0.45586358       0.62896320 </v>
   <v>       0.97392083       0.48696042       0.66713099 </v>
   <v>       0.47772954       0.52227046       0.39673336 </v>
   <v>       0.47772954       0.95545907       0.39673336 </v>
   <v>       0.02901078       0.51450539       0.56464259 </v>
   <v>       0.38754518       0.69377259       0.50251268 </v>
   <v>       0.30622741       0.61245482       0.50251268 </v>
   <v>       0.30622741       0.69377259       0.50251268 </v>
   <v>       0.61246368       0.30623184       0.50361540 </v>
   <v>       0.69376816       0.38753632       0.50361540 </v>
   <v>       0.69376816       0.30623184       0.50361540 </v>
   <v>       0.48549461       0.51450539       0.56464259 </v>
   <v>       0.52427105       0.47572895       0.62533857 </v>
   <v>       0.48549461       0.97098922       0.56464259 </v>
   <v>       0.52427105       0.04854210       0.62533857 </v>
   <v>       0.95145790       0.47572895       0.62533857 </v>
   <v>       0.51419538       0.48580462       0.44492570 </v>
   <v>       0.51419538       0.02839077       0.44492570 </v>
   <v>       0.97160923       0.48580462       0.44492570 </v>
   <v>       0.02463930       0.51231965       0.44513757 </v>
   <v>       0.05329323       0.52664662       0.50494120 </v>
   <v>       0.35925787       0.71851573       0.50255276 </v>
   <v>       0.35925787       0.64074213       0.50255276 </v>
   <v>       0.28148427       0.64074213       0.50255276 </v>
   <v>       0.38845594       0.61154406       0.50291787 </v>
   <v>       0.44387514       0.63887871       0.50319086 </v>
   <v>       0.47128081       0.61136523       0.50388750 </v>
   <v>       0.44396225       0.55603775       0.50447284 </v>
   <v>       0.38863477       0.52871919       0.50388750 </v>
   <v>       0.36112129       0.55612486       0.50319086 </v>
   <v>       0.38845594       0.77691187       0.50291787 </v>
   <v>       0.44387514       0.80499642       0.50319086 </v>
   <v>       0.47128081       0.85991558       0.50388750 </v>
   <v>       0.44396225       0.88792449       0.50447284 </v>
   <v>       0.38863477       0.85991558       0.50388750 </v>
   <v>       0.36112129       0.80499642       0.50319086 </v>
   <v>       0.22308813       0.61154406       0.50291787 </v>
   <v>       0.19500358       0.63887871       0.50319086 </v>
   <v>       0.14008442       0.61136523       0.50388750 </v>
   <v>       0.11207551       0.55603775       0.50447284 </v>
   <v>       0.14008442       0.52871919       0.50388750 </v>
   <v>       0.19500358       0.55612486       0.50319086 </v>
   <v>       0.64074713       0.28149427       0.50363545 </v>
   <v>       0.64074713       0.35925287       0.50363545 </v>
   <v>       0.71850573       0.35925287       0.50363545 </v>
   <v>       0.61155283       0.38844717       0.50400770 </v>
   <v>       0.55613249       0.36109095       0.50416000 </v>
   <v>       0.52872161       0.38860648       0.50436367 </v>
   <v>       0.55600373       0.44399627       0.50402583 </v>
   <v>       0.61139352       0.47127839       0.50436367 </v>
   <v>       0.63890905       0.44386751       0.50416000 </v>
   <v>       0.61155283       0.22310567       0.50400770 </v>
   <v>       0.55613249       0.19504154       0.50416000 </v>
   <v>       0.52872161       0.14011514       0.50436367 </v>
   <v>       0.55600373       0.11200746       0.50402583 </v>
   <v>       0.61139352       0.14011514       0.50436367 </v>
   <v>       0.63890905       0.19504154       0.50416000 </v>
   <v>       0.77689433       0.38844717       0.50400770 </v>
   <v>       0.80495846       0.36109095       0.50416000 </v>
   <v>       0.85988486       0.38860648       0.50436367 </v>
   <v>       0.88799254       0.44399627       0.50402583 </v>
   <v>       0.85988486       0.47127839       0.50436367 </v>
   <v>       0.80495846       0.44386751       0.50416000 </v>
   <v>       0.52659974       0.47340026       0.50358394 </v>
   <v>       0.47335338       0.52664662       0.50494120 </v>
   <v>       0.51200512       0.48799488       0.56465463 </v>
   <v>       0.52659974       0.05319947       0.50358394 </v>
   <v>       0.47335338       0.94670677       0.50494120 </v>
   <v>       0.51200512       0.02401024       0.56465463 </v>
   <v>       0.94680053       0.47340026       0.50358394 </v>
   <v>       0.97598976       0.48799488       0.56465463 </v>
   <v>       0.48768035       0.51231965       0.44513757 </v>
   <v>       0.48768035       0.97536070       0.44513757 </v>
  </varray>
 </structure>
</modeling>
