<?xml version="1.0" encoding="ISO-8859-1"?>
<modeling>
 <generator>
  <i name="program" type="string">vasp </i>
  <i name="version" type="string">5.4.4.18Apr17-6-g9f103f2a35  </i>
  <i name="subversion" type="string">(build Jun 07 2020 16:50:00) complex            parallel </i>
  <i name="platform" type="string">LinuxIFC </i>
  <i name="date" type="string">2023 02 14 </i>
  <i name="time" type="string">02:57:32 </i>
 </generator>
 <incar>
  <i type="string" name="SYSTEM">Simulation for cell shape cell volume r</i>
  <i type="int" name="ISTART">     1</i>
  <i type="string" name="PREC">high</i>
  <i type="string" name="ALGO">48</i>
  <i type="int" name="ICHARG">    11</i>
  <i type="int" name="NELM">   200</i>
  <i type="int" name="IBRION">    -1</i>
  <i name="EDIFF">      0.00001000</i>
  <i name="EDIFFG">     -0.01000000</i>
  <i type="int" name="NSW">     0</i>
  <i type="int" name="ISIF">     2</i>
  <i name="ENCUT">    500.00000000</i>
  <i name="POTIM">      0.30000000</i>
  <i type="string" name="LREAL">A</i>
  <i type="int" name="ISMEAR">     0</i>
  <i name="SIGMA">      0.01000000</i>
  <i type="int" name="NWRITE">     0</i>
  <i type="logical" name="LWAVE"> F  </i>
  <i type="logical" name="LCHARG"> F  </i>
  <v type="int" name="KPOINT_BSE">    -1     0     0     0</v>
  <i type="int" name="NELM">   200</i>
  <i type="string" name="GGA">PE</i>
 </incar>
 <structure name="primitive_cell" >
  <crystal>
   <varray name="basis" >
    <v>      22.29816113       0.00850179       0.00000000 </v>
    <v>     -11.14148596      19.24431595       0.00000000 </v>
    <v>       0.00000000       0.00000000      20.00000000 </v>
   </varray>
   <i name="volume">   8584.15161224 </i>
   <varray name="rec_basis" >
    <v>       0.04483685       0.02595827       0.00000000 </v>
    <v>      -0.00001981       0.05195193       0.00000000 </v>
    <v>       0.00000000       0.00000000       0.05000000 </v>
   </varray>
  </crystal>
  <varray name="positions" >
   <v>      -0.42454407       0.14033655       0.49404931 </v>
   <v>      -0.45287668       0.15968012       0.47330479 </v>
   <v>      -0.35879026       0.18852819      -0.48348118 </v>
   <v>      -0.45329117       0.06813413       0.48974488 </v>
   <v>      -0.31397383       0.17437409      -0.46837050 </v>
   <v>      -0.44294926       0.03673363      -0.45911826 </v>
   <v>      -0.34532683       0.26200460      -0.48268498 </v>
   <v>      -0.49206096       0.03294631       0.43115258 </v>
   <v>      -0.46885306       0.12357833       0.37074361 </v>
   <v>      -0.45247439       0.24059026      -0.48069521 </v>
   <v>      -0.39742463       0.27943764      -0.48298668 </v>
   <v>      -0.49572033       0.06698541       0.37277257 </v>
   <v>      -0.47425404      -0.03318745      -0.45850158 </v>
   <v>      -0.27576457       0.31502658      -0.48204391 </v>
   <v>       0.47438391      -0.04087302       0.43224944 </v>
   <v>      -0.23699932       0.29881021      -0.47895506 </v>
   <v>       0.48387380      -0.07026129       0.49217529 </v>
   <v>      -0.38068107       0.34918010      -0.48388236 </v>
   <v>       0.46849753       0.02870078       0.31736320 </v>
   <v>      -0.25835996       0.38472593      -0.48299483 </v>
   <v>       0.43915658      -0.07886095       0.37446136 </v>
   <v>       0.46605491       0.05512366       0.27238298 </v>
   <v>      -0.49975254       0.31741925      -0.47190404 </v>
   <v>      -0.31116178       0.40148729      -0.48321108 </v>
   <v>       0.43618730      -0.04447709       0.31815729 </v>
   <v>      -0.44047641       0.36259074      -0.48589816 </v>
   <v>       0.45300642      -0.14244622      -0.49870671 </v>
   <v>      -0.15669373       0.37868438       0.47297853 </v>
   <v>       0.41436975      -0.13520293       0.37437004 </v>
   <v>       0.48004934      -0.15575036      -0.46677459 </v>
   <v>      -0.29487505       0.45666959      -0.48103207 </v>
   <v>       0.40897376      -0.07406705       0.27377403 </v>
   <v>      -0.18507555       0.44466677      -0.48424335 </v>
   <v>       0.34073893      -0.17170603       0.47639841 </v>
   <v>       0.38298554      -0.18924951       0.49323515 </v>
   <v>      -0.13723947       0.42658960       0.49348576 </v>
   <v>      -0.42247370       0.42871348       0.49205336 </v>
   <v>      -0.37464481       0.45750536       0.47174906 </v>
   <v>      -0.12024745       0.39897827       0.37012359 </v>
   <v>      -0.17073780      -0.49602918      -0.46964552 </v>
   <v>      -0.39689688       0.47158461       0.36813109 </v>
   <v>      -0.46626866       0.45692684       0.48778055 </v>
   <v>      -0.06522625       0.46991034       0.48927632 </v>
   <v>      -0.06380811       0.42837504       0.37242158 </v>
   <v>       0.36184130      -0.26431938      -0.49806963 </v>
   <v>       0.46447551      -0.25379355       0.49640165 </v>
   <v>       0.49287675       0.44698144      -0.46047481 </v>
   <v>      -0.03000513       0.46607819       0.43088055 </v>
   <v>       0.40871180      -0.28860995      -0.49892996 </v>
   <v>      -0.42715317       0.49777004       0.37003187 </v>
   <v>      -0.46414885       0.49446922       0.42876817 </v>
   <v>      -0.03402490      -0.48821570      -0.45958798 </v>
   <v>      -0.05166855       0.40164328       0.27222617 </v>
   <v>       0.25584323      -0.29077440       0.49911717 </v>
   <v>      -0.02546193       0.43051357       0.31727062 </v>
   <v>       0.29047323      -0.31203594      -0.49741810 </v>
   <v>       0.45372523       0.47749359      -0.45977872 </v>
   <v>      -0.43104371      -0.46769707       0.31424953 </v>
   <v>       0.04361980      -0.49394110       0.43227923 </v>
   <v>      -0.40269450      -0.46546321       0.26900122 </v>
   <v>       0.49486981      -0.47291168       0.42983793 </v>
   <v>       0.38486255      -0.36018301      -0.49914514 </v>
   <v>       0.03567380      -0.44965774      -0.45885017 </v>
   <v>       0.49767893      -0.33922285       0.47251767 </v>
   <v>       0.04754413       0.47104936       0.31839896 </v>
   <v>       0.45702059      -0.48183619       0.49029026 </v>
   <v>       0.26616106      -0.38338168      -0.49758406 </v>
   <v>       0.07274988      -0.45483361       0.49214799 </v>
   <v>       0.08169097      -0.49155071       0.37475227 </v>
   <v>       0.43838468      -0.38141031       0.49085498 </v>
   <v>       0.15794598      -0.37280260      -0.46704796 </v>
   <v>       0.31370987      -0.40723100      -0.49830735 </v>
   <v>      -0.47271345      -0.43642077       0.31499475 </v>
   <v>       0.49060305      -0.43906975       0.37162540 </v>
   <v>       0.07717929       0.47315667       0.27420110 </v>
   <v>       0.14469374      -0.41357748      -0.49851059 </v>
   <v>       0.41543925      -0.45145318       0.49961772 </v>
   <v>       0.19117851      -0.43723503       0.49411687 </v>
   <v>       0.37600318      -0.47818546      -0.46742483 </v>
   <v>       0.13789605      -0.46019777       0.37487517 </v>
   <v>      -0.47624397      -0.41029550       0.27028498 </v>
   <v>       0.45844365      -0.41508806       0.37150083 </v>
   <v>       0.29251333      -0.46320628       0.49762132 </v>
   <v>       0.17332888      -0.49743542       0.47804133 </v>
  </varray>
 </structure>
 <varray name="primitive_index" >
  <v type="int" >        1 </v>
  <v type="int" >       71 </v>
  <v type="int" >       57 </v>
  <v type="int" >       35 </v>
  <v type="int" >       16 </v>
  <v type="int" >        4 </v>
  <v type="int" >       56 </v>
  <v type="int" >       34 </v>
  <v type="int" >       67 </v>
  <v type="int" >       64 </v>
  <v type="int" >       29 </v>
  <v type="int" >       36 </v>
  <v type="int" >        5 </v>
  <v type="int" >       30 </v>
  <v type="int" >       33 </v>
  <v type="int" >       65 </v>
  <v type="int" >       58 </v>
  <v type="int" >       28 </v>
  <v type="int" >       37 </v>
  <v type="int" >       26 </v>
  <v type="int" >       39 </v>
  <v type="int" >       68 </v>
  <v type="int" >       18 </v>
  <v type="int" >       27 </v>
  <v type="int" >       38 </v>
  <v type="int" >       32 </v>
  <v type="int" >        6 </v>
  <v type="int" >       76 </v>
  <v type="int" >       70 </v>
  <v type="int" >       82 </v>
  <v type="int" >       66 </v>
  <v type="int" >       69 </v>
  <v type="int" >       31 </v>
  <v type="int" >       13 </v>
  <v type="int" >       55 </v>
  <v type="int" >        2 </v>
  <v type="int" >        3 </v>
  <v type="int" >       81 </v>
  <v type="int" >       72 </v>
  <v type="int" >       17 </v>
  <v type="int" >       77 </v>
  <v type="int" >       49 </v>
  <v type="int" >       42 </v>
  <v type="int" >       43 </v>
  <v type="int" >       54 </v>
  <v type="int" >       61 </v>
  <v type="int" >       10 </v>
  <v type="int" >       41 </v>
  <v type="int" >       22 </v>
  <v type="int" >       50 </v>
  <v type="int" >       48 </v>
  <v type="int" >        7 </v>
  <v type="int" >       73 </v>
  <v type="int" >       62 </v>
  <v type="int" >       44 </v>
  <v type="int" >       23 </v>
  <v type="int" >       11 </v>
  <v type="int" >       51 </v>
  <v type="int" >       40 </v>
  <v type="int" >       78 </v>
  <v type="int" >       47 </v>
  <v type="int" >       21 </v>
  <v type="int" >        8 </v>
  <v type="int" >       15 </v>
  <v type="int" >       45 </v>
  <v type="int" >       60 </v>
  <v type="int" >       19 </v>
  <v type="int" >       59 </v>
  <v type="int" >       46 </v>
  <v type="int" >       25 </v>
  <v type="int" >       83 </v>
  <v type="int" >       20 </v>
  <v type="int" >       52 </v>
  <v type="int" >       53 </v>
  <v type="int" >       74 </v>
  <v type="int" >        9 </v>
  <v type="int" >       12 </v>
  <v type="int" >       24 </v>
  <v type="int" >       84 </v>
  <v type="int" >       75 </v>
  <v type="int" >       79 </v>
  <v type="int" >       80 </v>
  <v type="int" >       63 </v>
  <v type="int" >       14 </v>
 </varray>
 <kpoints>
  <generation param="listgenerated">
   <i name="divisions" type="int">      20 </i>
   <v>       0.00000000       0.00000000       0.00000000 </v>
   <v>       0.50000000       0.00000000       0.00000000 </v>
   <v>       0.33333333       0.33333333       0.00000000 </v>
   <v>       0.00000000       0.00000000       0.00000000 </v>
  </generation>
  <varray name="kpointlist" >
   <v>       0.00000000       0.00000000       0.00000000 </v>
   <v>       0.02631579       0.00000000       0.00000000 </v>
   <v>       0.05263158       0.00000000       0.00000000 </v>
   <v>       0.07894737       0.00000000       0.00000000 </v>
   <v>       0.10526316       0.00000000       0.00000000 </v>
   <v>       0.13157895       0.00000000       0.00000000 </v>
   <v>       0.15789474       0.00000000       0.00000000 </v>
   <v>       0.18421053       0.00000000       0.00000000 </v>
   <v>       0.21052632       0.00000000       0.00000000 </v>
   <v>       0.23684211       0.00000000       0.00000000 </v>
   <v>       0.26315789       0.00000000       0.00000000 </v>
   <v>       0.28947368       0.00000000       0.00000000 </v>
   <v>       0.31578947       0.00000000       0.00000000 </v>
   <v>       0.34210526       0.00000000       0.00000000 </v>
   <v>       0.36842105       0.00000000       0.00000000 </v>
   <v>       0.39473684       0.00000000       0.00000000 </v>
   <v>       0.42105263       0.00000000       0.00000000 </v>
   <v>       0.44736842       0.00000000       0.00000000 </v>
   <v>       0.47368421       0.00000000       0.00000000 </v>
   <v>       0.50000000       0.00000000       0.00000000 </v>
   <v>       0.50000000       0.00000000       0.00000000 </v>
   <v>       0.49122807       0.01754386       0.00000000 </v>
   <v>       0.48245614       0.03508772       0.00000000 </v>
   <v>       0.47368421       0.05263158       0.00000000 </v>
   <v>       0.46491228       0.07017544       0.00000000 </v>
   <v>       0.45614035       0.08771930       0.00000000 </v>
   <v>       0.44736842       0.10526316       0.00000000 </v>
   <v>       0.43859649       0.12280702       0.00000000 </v>
   <v>       0.42982456       0.14035088       0.00000000 </v>
   <v>       0.42105263       0.15789474       0.00000000 </v>
   <v>       0.41228070       0.17543860       0.00000000 </v>
   <v>       0.40350877       0.19298246       0.00000000 </v>
   <v>       0.39473684       0.21052632       0.00000000 </v>
   <v>       0.38596491       0.22807018       0.00000000 </v>
   <v>       0.37719298       0.24561404       0.00000000 </v>
   <v>       0.36842105       0.26315789       0.00000000 </v>
   <v>       0.35964912       0.28070175       0.00000000 </v>
   <v>       0.35087719       0.29824561       0.00000000 </v>
   <v>       0.34210526       0.31578947       0.00000000 </v>
   <v>       0.33333333       0.33333333       0.00000000 </v>
   <v>       0.33333333       0.33333333       0.00000000 </v>
   <v>       0.31578947       0.31578947       0.00000000 </v>
   <v>       0.29824561       0.29824561       0.00000000 </v>
   <v>       0.28070175       0.28070175       0.00000000 </v>
   <v>       0.26315789       0.26315789       0.00000000 </v>
   <v>       0.24561404       0.24561404       0.00000000 </v>
   <v>       0.22807018       0.22807018       0.00000000 </v>
   <v>       0.21052632       0.21052632       0.00000000 </v>
   <v>       0.19298246       0.19298246       0.00000000 </v>
   <v>       0.17543860       0.17543860       0.00000000 </v>
   <v>       0.15789474       0.15789474       0.00000000 </v>
   <v>       0.14035088       0.14035088       0.00000000 </v>
   <v>       0.12280702       0.12280702       0.00000000 </v>
   <v>       0.10526316       0.10526316       0.00000000 </v>
   <v>       0.08771930       0.08771930       0.00000000 </v>
   <v>       0.07017544       0.07017544       0.00000000 </v>
   <v>       0.05263158       0.05263158       0.00000000 </v>
   <v>       0.03508772       0.03508772       0.00000000 </v>
   <v>       0.01754386       0.01754386       0.00000000 </v>
   <v>       0.00000000       0.00000000       0.00000000 </v>
  </varray>
  <varray name="weights" >
   <v>       0.01666667 </v>
   <v>       0.01666667 </v>
   <v>       0.01666667 </v>
   <v>       0.01666667 </v>
   <v>       0.01666667 </v>
   <v>       0.01666667 </v>
   <v>       0.01666667 </v>
   <v>       0.01666667 </v>
   <v>       0.01666667 </v>
   <v>       0.01666667 </v>
   <v>       0.01666667 </v>
   <v>       0.01666667 </v>
   <v>       0.01666667 </v>
   <v>       0.01666667 </v>
   <v>       0.01666667 </v>
   <v>       0.01666667 </v>
   <v>       0.01666667 </v>
   <v>       0.01666667 </v>
   <v>       0.01666667 </v>
   <v>       0.01666667 </v>
   <v>       0.01666667 </v>
   <v>       0.01666667 </v>
   <v>       0.01666667 </v>
   <v>       0.01666667 </v>
   <v>       0.01666667 </v>
   <v>       0.01666667 </v>
   <v>       0.01666667 </v>
   <v>       0.01666667 </v>
   <v>       0.01666667 </v>
   <v>       0.01666667 </v>
   <v>       0.01666667 </v>
   <v>       0.01666667 </v>
   <v>       0.01666667 </v>
   <v>       0.01666667 </v>
   <v>       0.01666667 </v>
   <v>       0.01666667 </v>
   <v>       0.01666667 </v>
   <v>       0.01666667 </v>
   <v>       0.01666667 </v>
   <v>       0.01666667 </v>
   <v>       0.01666667 </v>
   <v>       0.01666667 </v>
   <v>       0.01666667 </v>
   <v>       0.01666667 </v>
   <v>       0.01666667 </v>
   <v>       0.01666667 </v>
   <v>       0.01666667 </v>
   <v>       0.01666667 </v>
   <v>       0.01666667 </v>
   <v>       0.01666667 </v>
   <v>       0.01666667 </v>
   <v>       0.01666667 </v>
   <v>       0.01666667 </v>
   <v>       0.01666667 </v>
   <v>       0.01666667 </v>
   <v>       0.01666667 </v>
   <v>       0.01666667 </v>
   <v>       0.01666667 </v>
   <v>       0.01666667 </v>
   <v>       0.01666667 </v>
  </varray>
 </kpoints>
 <parameters>
  <separator name="general" >
   <i type="string" name="SYSTEM">Simulation for cell shape cell volume r</i>
   <i type="logical" name="LCOMPAT"> F  </i>
  </separator>
  <separator name="electronic" >
   <i type="string" name="PREC">high</i>
   <i name="ENMAX">    500.00000000</i>
   <i name="ENAUG">    644.87300000</i>
   <i name="EDIFF">      0.00001000</i>
   <i type="int" name="IALGO">    38</i>
   <i type="int" name="IWAVPR">    10</i>
   <i type="int" name="NBANDS">   192</i>
   <i name="NELECT">    288.00000000</i>
   <i type="int" name="TURBO">     0</i>
   <i type="int" name="IRESTART">     0</i>
   <i type="int" name="NREBOOT">     0</i>
   <i type="int" name="NMIN">     0</i>
   <i name="EREF">      0.00000000</i>
   <separator name="electronic smearing" >
    <i type="int" name="ISMEAR">     0</i>
    <i name="SIGMA">      0.01000000</i>
    <i name="KSPACING">      0.50000000</i>
    <i type="logical" name="KGAMMA"> T  </i>
   </separator>
   <separator name="electronic projectors" >
    <i type="logical" name="LREAL"> T  </i>
    <v name="ROPT">     -0.00040000     -0.00040000     -0.00040000     -0.00040000</v>
    <i type="int" name="LMAXPAW">  -100</i>
    <i type="int" name="LMAXMIX">     2</i>
    <i type="logical" name="NLSPLINE"> F  </i>
   </separator>
   <separator name="electronic startup" >
    <i type="int" name="ISTART">     1</i>
    <i type="int" name="ICHARG">    11</i>
    <i type="int" name="INIWAV">     1</i>
   </separator>
   <separator name="electronic spin" >
    <i type="int" name="ISPIN">     1</i>
    <i type="logical" name="LNONCOLLINEAR"> F  </i>
    <v name="MAGMOM">      1.00000000      1.00000000      1.00000000      1.00000000      1.00000000      1.00000000      1.00000000      1.00000000      1.00000000      1.00000000      1.00000000      1.00000000      1.00000000      1.00000000      1.00000000      1.00000000      1.00000000      1.00000000      1.00000000      1.00000000
      1.00000000      1.00000000      1.00000000      1.00000000      1.00000000      1.00000000      1.00000000      1.00000000      1.00000000      1.00000000      1.00000000      1.00000000      1.00000000      1.00000000      1.00000000      1.00000000      1.00000000      1.00000000      1.00000000      1.00000000
      1.00000000      1.00000000      1.00000000      1.00000000      1.00000000      1.00000000      1.00000000      1.00000000      1.00000000      1.00000000      1.00000000      1.00000000      1.00000000      1.00000000      1.00000000      1.00000000      1.00000000      1.00000000      1.00000000      1.00000000
      1.00000000      1.00000000      1.00000000      1.00000000      1.00000000      1.00000000      1.00000000      1.00000000      1.00000000      1.00000000      1.00000000      1.00000000      1.00000000      1.00000000      1.00000000      1.00000000      1.00000000      1.00000000      1.00000000      1.00000000
      1.00000000      1.00000000      1.00000000      1.00000000</v>
    <i name="NUPDOWN">     -1.00000000</i>
    <i type="logical" name="LSORBIT"> F  </i>
    <v name="SAXIS">      0.00000000      0.00000000      1.00000000</v>
    <i type="logical" name="LSPIRAL"> F  </i>
    <v name="QSPIRAL">      0.00000000      0.00000000      0.00000000</v>
    <i type="logical" name="LZEROZ"> F  </i>
   </separator>
   <separator name="electronic exchange-correlation" >
    <i type="logical" name="LASPH"> F  </i>
    <i type="logical" name="LMETAGGA"> F  </i>
   </separator>
   <separator name="electronic convergence" >
    <i type="int" name="NELM">   200</i>
    <i type="int" name="NELMDL">     0</i>
    <i type="int" name="NELMIN">     2</i>
    <i name="ENINI">    500.00000000</i>
    <separator name="electronic convergence detail" >
     <i type="logical" name="LDIAG"> T  </i>
     <i type="logical" name="LSUBROT"> F  </i>
     <i name="WEIMIN">      0.00000000</i>
     <i name="EBREAK">      0.00000001</i>
     <i name="DEPER">      0.30000000</i>
     <i type="int" name="NRMM">     4</i>
     <i name="TIME">      0.40000000</i>
    </separator>
   </separator>
   <separator name="electronic mixer" >
    <i name="AMIX">      0.40000000</i>
    <i name="BMIX">      1.00000000</i>
    <i name="AMIN">      0.10000000</i>
    <i name="AMIX_MAG">      1.60000000</i>
    <i name="BMIX_MAG">      1.00000000</i>
    <separator name="electronic mixer details" >
     <i type="int" name="IMIX">     4</i>
     <i type="logical" name="MIXFIRST"> F  </i>
     <i type="int" name="MAXMIX">   -45</i>
     <i name="WC">    100.00000000</i>
     <i type="int" name="INIMIX">     1</i>
     <i type="int" name="MIXPRE">     1</i>
     <i type="int" name="MREMOVE">     5</i>
    </separator>
   </separator>
   <separator name="electronic dipolcorrection" >
    <i type="logical" name="LDIPOL"> F  </i>
    <i type="logical" name="LMONO"> F  </i>
    <i type="int" name="IDIPOL">     0</i>
    <i name="EPSILON">      1.00000000</i>
    <v name="DIPOL">   -100.00000000   -100.00000000   -100.00000000</v>
    <i name="EFIELD">      0.00000000</i>
   </separator>
  </separator>
  <separator name="grids" >
   <i type="int" name="NGX">   168</i>
   <i type="int" name="NGY">   162</i>
   <i type="int" name="NGZ">   150</i>
   <i type="int" name="NGXF">   250</i>
   <i type="int" name="NGYF">   250</i>
   <i type="int" name="NGZF">   224</i>
   <i type="logical" name="ADDGRID"> F  </i>
  </separator>
  <separator name="ionic" >
   <i type="int" name="NSW">     0</i>
   <i type="int" name="IBRION">    -1</i>
   <i type="int" name="MDALGO">     0</i>
   <i type="int" name="ISIF">     2</i>
   <i name="PSTRESS">      0.00000000</i>
   <i name="EDIFFG">     -0.01000000</i>
   <i type="int" name="NFREE">     0</i>
   <i name="POTIM">      0.30000000</i>
   <i name="SMASS">     -3.00000000</i>
   <i name="SCALEE">      1.00000000</i>
  </separator>
  <separator name="ionic md" >
   <i name="TEBEG">      0.00010000</i>
   <i name="TEEND">      0.00010000</i>
   <i type="int" name="NBLOCK">     1</i>
   <i type="int" name="KBLOCK">     1</i>
   <i type="int" name="NPACO">   256</i>
   <i name="APACO">     16.00000000</i>
  </separator>
  <separator name="symmetry" >
   <i type="int" name="ISYM">     2</i>
   <i name="SYMPREC">      0.00001000</i>
  </separator>
  <separator name="dos" >
   <i type="int" name="LORBIT">     0</i>
   <v name="RWIGS">     -1.00000000     -1.00000000     -1.00000000     -1.00000000</v>
   <i type="int" name="NEDOS">   301</i>
   <i name="EMIN">     10.00000000</i>
   <i name="EMAX">    -10.00000000</i>
   <i name="EFERMI">      0.00000000</i>
  </separator>
  <separator name="writing" >
   <i type="int" name="NWRITE">     0</i>
   <i type="logical" name="LWAVE"> F  </i>
   <i type="logical" name="LDOWNSAMPLE"> F  </i>
   <i type="logical" name="LCHARG"> F  </i>
   <i type="logical" name="LPARD"> F  </i>
   <i type="logical" name="LVTOT"> F  </i>
   <i type="logical" name="LVHAR"> F  </i>
   <i type="logical" name="LELF"> F  </i>
   <i type="logical" name="LOPTICS"> F  </i>
   <v name="STM">      0.00000000      0.00000000      0.00000000      0.00000000      0.00000000      0.00000000      0.00000000</v>
  </separator>
  <separator name="performance" >
   <i type="int" name="NPAR">    16</i>
   <i type="int" name="NSIM">     4</i>
   <i type="int" name="NBLK">    -1</i>
   <i type="logical" name="LPLANE"> T  </i>
   <i type="logical" name="LSCALAPACK"> T  </i>
   <i type="logical" name="LSCAAWARE"> F  </i>
   <i type="logical" name="LSCALU"> F  </i>
   <i type="logical" name="LASYNC"> F  </i>
   <i type="logical" name="LORBITALREAL"> F  </i>
  </separator>
  <separator name="miscellaneous" >
   <i type="int" name="IDIOT">     3</i>
   <i type="int" name="ISPECIAL">     0</i>
   <i type="logical" name="LMUSIC"> F  </i>
   <v name="POMASS">     14.00100000     16.00000000     12.01100000      1.00000000</v>
   <v name="DARWINR">      0.00000000      0.00000000      0.00000000      0.00000000</v>
   <v name="DARWINV">      1.00000000      1.00000000      1.00000000      1.00000000</v>
   <i type="logical" name="LCORR"> T  </i>
  </separator>
  <i type="logical" name="GGA_COMPAT"> T  </i>
  <i type="logical" name="LBERRY"> F  </i>
  <i type="int" name="ICORELEVEL">     0</i>
  <i type="logical" name="LDAU"> F  </i>
  <i type="int" name="I_CONSTRAINED_M">     0</i>
  <separator name="electronic exchange-correlation" >
   <i type="string" name="GGA">PE</i>
   <i type="int" name="VOSKOWN">     0</i>
   <i type="logical" name="LHFCALC"> F  </i>
   <i type="string" name="PRECFOCK"></i>
   <i type="logical" name="LSYMGRAD"> F  </i>
   <i type="logical" name="LHFONE"> F  </i>
   <i type="logical" name="LRHFCALC"> F  </i>
   <i type="logical" name="LTHOMAS"> F  </i>
   <i type="logical" name="LMODELHF"> F  </i>
   <i name="ENCUT4O">     -1.00000000</i>
   <i type="int" name="EXXOEP">     0</i>
   <i type="int" name="FOURORBIT">     0</i>
   <i name="AEXX">      0.00000000</i>
   <i name="HFALPHA">      0.00000000</i>
   <i name="MCALPHA">      0.00000000</i>
   <i name="ALDAX">      1.00000000</i>
   <i name="AGGAX">      1.00000000</i>
   <i name="ALDAC">      1.00000000</i>
   <i name="AGGAC">      1.00000000</i>
   <i type="int" name="NKREDX">     1</i>
   <i type="int" name="NKREDY">     1</i>
   <i type="int" name="NKREDZ">     1</i>
   <i type="logical" name="SHIFTRED"> F  </i>
   <i type="logical" name="ODDONLY"> F  </i>
   <i type="logical" name="EVENONLY"> F  </i>
   <i type="int" name="LMAXFOCK">     0</i>
   <i type="int" name="NMAXFOCKAE">     0</i>
   <i type="logical" name="LFOCKAEDFT"> F  </i>
   <i name="HFSCREEN">      0.00000000</i>
   <i name="HFSCREENC">      0.00000000</i>
   <i type="int" name="NBANDSGWLOW">     0</i>
  </separator>
  <separator name="vdW DFT" >
   <i type="logical" name="LUSE_VDW"> F  </i>
   <i name="Zab_VDW">     -0.84910000</i>
   <i name="PARAM1">      0.12340000</i>
   <i name="PARAM2">      1.00000000</i>
   <i name="PARAM3">      0.00000000</i>
  </separator>
  <separator name="model GW" >
   <i type="int" name="MODEL_GW">     0</i>
   <i name="MODEL_EPS0">     61.31536866</i>
   <i name="MODEL_ALPHA">      1.00000000</i>
  </separator>
  <separator name="linear response parameters" >
   <i type="logical" name="LEPSILON"> F  </i>
   <i type="logical" name="LRPA"> F  </i>
   <i type="logical" name="LNABLA"> F  </i>
   <i type="logical" name="LVEL"> F  </i>
   <i type="int" name="KINTER">     0</i>
   <i name="CSHIFT">      0.10000000</i>
   <i name="OMEGAMAX">     -1.00000000</i>
   <i name="DEG_THRESHOLD">      0.00200000</i>
   <i name="RTIME">     -0.10000000</i>
   <i name="WPLASMAI">      0.00000000</i>
   <v name="DFIELD">      0.00000000      0.00000000      0.00000000</v>
   <v name="WPLASMA">      0.00000000      0.00000000      0.00000000      0.00000000      0.00000000      0.00000000      0.00000000      0.00000000      0.00000000</v>
  </separator>
  <separator name="orbital magnetization" >
   <i type="logical" name="NUCIND"> F  </i>
   <v name="MAGPOS">      0.00000000      0.00000000      0.00000000</v>
   <i type="logical" name="LNICSALL"> T  </i>
   <i type="logical" name="ORBITALMAG"> F  </i>
   <i type="logical" name="LMAGBLOCH"> F  </i>
   <i type="logical" name="LCHIMAG"> F  </i>
   <i type="logical" name="LGAUGE"> T  </i>
   <i type="int" name="MAGATOM">     0</i>
   <v name="MAGDIPOL">      0.00000000      0.00000000      0.00000000</v>
   <v name="AVECCONST">      0.00000000      0.00000000      0.00000000</v>
  </separator>
  <separator name="response functions" >
   <i type="logical" name="LADDER"> F  </i>
   <i type="logical" name="LRPAFORCE"> F  </i>
   <i type="logical" name="LFXC"> F  </i>
   <i type="logical" name="LHARTREE"> T  </i>
   <i type="int" name="IBSE">     0</i>
   <v type="int" name="KPOINT">    -1     0     0     0</v>
   <i type="logical" name="LTCTE"> F  </i>
   <i type="logical" name="LTETE"> F  </i>
   <i type="logical" name="LTRIPLET"> F  </i>
   <i type="logical" name="LFXCEPS"> F  </i>
   <i type="logical" name="LFXHEG"> F  </i>
   <i type="int" name="NATURALO">     2</i>
   <i type="logical" name="L2ORDER"> F  </i>
   <i type="logical" name="LMP2LT"> F  </i>
   <i type="logical" name="LUSEW"> F  </i>
   <i name="ENCUTGW">     -2.00000000</i>
   <i name="ENCUTGWSOFT">     -2.00000000</i>
   <i name="ENCUTLF">     -1.00000000</i>
   <i type="int" name="LMAXMP2">    -1</i>
   <i name="SCISSOR">      0.00000000</i>
   <i type="int" name="NOMEGA">     0</i>
   <i type="int" name="NOMEGAR">     0</i>
   <i type="int" name="NBANDSGW">    -1</i>
   <i type="int" name="NBANDSO">    -1</i>
   <i type="int" name="NBANDSV">    -1</i>
   <i type="int" name="NELM">   200</i>
   <i type="int" name="NELMHF">     1</i>
   <i type="int" name="DIM">     3</i>
   <i type="int" name="ANTIRES">     0</i>
   <i name="OMEGAMAX">    -30.00000000</i>
   <i name="OMEGAMIN">    -30.00000000</i>
   <i name="OMEGATL">   -200.00000000</i>
   <i type="int" name="OMEGAGRID">   140</i>
   <i name="CSHIFT">     -0.10000000</i>
   <i type="logical" name="SELFENERGY"> F  </i>
   <i type="logical" name="LSPECTRAL"> F  </i>
   <i type="logical" name="LSPECTRALGW"> F  </i>
   <i type="logical" name="LSINGLES"> F  </i>
   <i type="logical" name="LFERMIGW"> F  </i>
   <i type="logical" name="ODDONLYGW"> F  </i>
   <i type="logical" name="EVENONLYGW"> F  </i>
   <i type="int" name="NKREDLFX">     1</i>
   <i type="int" name="NKREDLFY">     1</i>
   <i type="int" name="NKREDLFZ">     1</i>
   <i type="int" name="MAXMEM">  2800</i>
   <i type="int" name="TELESCOPE">     0</i>
   <i type="int" name="TAUPAR">     1</i>
   <i type="int" name="OMEGAPAR">    -1</i>
   <i name="LAMBDA">      1.00000000</i>
  </separator>
  <separator name="External order field" >
   <i name="OFIELD_KAPPA">      0.00000000</i>
   <v name="OFIELD_K">      0.00000000      0.00000000      0.00000000</v>
   <i name="OFIELD_Q6_NEAR">      0.00000000</i>
   <i name="OFIELD_Q6_FAR">      0.00000000</i>
   <i name="OFIELD_A">      0.00000000</i>
  </separator>
  <separator name="solvation model" >
   <i type="logical" name="LSOL"> F  </i>
  </separator>
 </parameters>
 <atominfo>
  <atoms>      84 </atoms>
  <types>       4 </types>
  <array name="atoms" >
   <dimension dim="1">ion</dimension>
   <field type="string">element</field>
   <field type="int">atomtype</field>
   <set>
    <rc><c>N </c><c>   1</c></rc>
    <rc><c>N </c><c>   1</c></rc>
    <rc><c>N </c><c>   1</c></rc>
    <rc><c>N </c><c>   1</c></rc>
    <rc><c>N </c><c>   1</c></rc>
    <rc><c>N </c><c>   1</c></rc>
    <rc><c>N </c><c>   1</c></rc>
    <rc><c>N </c><c>   1</c></rc>
    <rc><c>N </c><c>   1</c></rc>
    <rc><c>N </c><c>   1</c></rc>
    <rc><c>N </c><c>   1</c></rc>
    <rc><c>N </c><c>   1</c></rc>
    <rc><c>O </c><c>   2</c></rc>
    <rc><c>O </c><c>   2</c></rc>
    <rc><c>O </c><c>   2</c></rc>
    <rc><c>O </c><c>   2</c></rc>
    <rc><c>O </c><c>   2</c></rc>
    <rc><c>O </c><c>   2</c></rc>
    <rc><c>C </c><c>   3</c></rc>
    <rc><c>C </c><c>   3</c></rc>
    <rc><c>C </c><c>   3</c></rc>
    <rc><c>C </c><c>   3</c></rc>
    <rc><c>C </c><c>   3</c></rc>
    <rc><c>C </c><c>   3</c></rc>
    <rc><c>C </c><c>   3</c></rc>
    <rc><c>C </c><c>   3</c></rc>
    <rc><c>C </c><c>   3</c></rc>
    <rc><c>C </c><c>   3</c></rc>
    <rc><c>C </c><c>   3</c></rc>
    <rc><c>C </c><c>   3</c></rc>
    <rc><c>C </c><c>   3</c></rc>
    <rc><c>C </c><c>   3</c></rc>
    <rc><c>C </c><c>   3</c></rc>
    <rc><c>C </c><c>   3</c></rc>
    <rc><c>C </c><c>   3</c></rc>
    <rc><c>C </c><c>   3</c></rc>
    <rc><c>C </c><c>   3</c></rc>
    <rc><c>C </c><c>   3</c></rc>
    <rc><c>C </c><c>   3</c></rc>
    <rc><c>C </c><c>   3</c></rc>
    <rc><c>C </c><c>   3</c></rc>
    <rc><c>C </c><c>   3</c></rc>
    <rc><c>C </c><c>   3</c></rc>
    <rc><c>C </c><c>   3</c></rc>
    <rc><c>C </c><c>   3</c></rc>
    <rc><c>C </c><c>   3</c></rc>
    <rc><c>C </c><c>   3</c></rc>
    <rc><c>C </c><c>   3</c></rc>
    <rc><c>C </c><c>   3</c></rc>
    <rc><c>C </c><c>   3</c></rc>
    <rc><c>C </c><c>   3</c></rc>
    <rc><c>C </c><c>   3</c></rc>
    <rc><c>C </c><c>   3</c></rc>
    <rc><c>C </c><c>   3</c></rc>
    <rc><c>C </c><c>   3</c></rc>
    <rc><c>C </c><c>   3</c></rc>
    <rc><c>C </c><c>   3</c></rc>
    <rc><c>C </c><c>   3</c></rc>
    <rc><c>C </c><c>   3</c></rc>
    <rc><c>C </c><c>   3</c></rc>
    <rc><c>H </c><c>   4</c></rc>
    <rc><c>H </c><c>   4</c></rc>
    <rc><c>H </c><c>   4</c></rc>
    <rc><c>H </c><c>   4</c></rc>
    <rc><c>H </c><c>   4</c></rc>
    <rc><c>H </c><c>   4</c></rc>
    <rc><c>H </c><c>   4</c></rc>
    <rc><c>H </c><c>   4</c></rc>
    <rc><c>H </c><c>   4</c></rc>
    <rc><c>H </c><c>   4</c></rc>
    <rc><c>H </c><c>   4</c></rc>
    <rc><c>H </c><c>   4</c></rc>
    <rc><c>H </c><c>   4</c></rc>
    <rc><c>H </c><c>   4</c></rc>
    <rc><c>H </c><c>   4</c></rc>
    <rc><c>H </c><c>   4</c></rc>
    <rc><c>H </c><c>   4</c></rc>
    <rc><c>H </c><c>   4</c></rc>
    <rc><c>H </c><c>   4</c></rc>
    <rc><c>H </c><c>   4</c></rc>
    <rc><c>H </c><c>   4</c></rc>
    <rc><c>H </c><c>   4</c></rc>
    <rc><c>H </c><c>   4</c></rc>
    <rc><c>H </c><c>   4</c></rc>
   </set>
  </array>
  <array name="atomtypes" >
   <dimension dim="1">type</dimension>
   <field type="int">atomspertype</field>
   <field type="string">element</field>
   <field>mass</field>
   <field>valence</field>
   <field type="string">pseudopotential</field>
   <set>
    <rc><c>  12</c><c>N </c><c>     14.00100000</c><c>      5.00000000</c><c>  PAW_PBE N 08Apr2002                   </c></rc>
    <rc><c>   6</c><c>O </c><c>     16.00000000</c><c>      6.00000000</c><c>  PAW_PBE O 08Apr2002                   </c></rc>
    <rc><c>  42</c><c>C </c><c>     12.01100000</c><c>      4.00000000</c><c>  PAW_PBE C 08Apr2002                   </c></rc>
    <rc><c>  24</c><c>H </c><c>      1.00000000</c><c>      1.00000000</c><c>  PAW_PBE H 15Jun2001                   </c></rc>
   </set>
  </array>
 </atominfo>
 <structure name="initialpos" >
  <crystal>
   <varray name="basis" >
    <v>      22.29816113       0.00850179       0.00000000 </v>
    <v>     -11.14148596      19.24431595       0.00000000 </v>
    <v>       0.00000000       0.00000000      20.00000000 </v>
   </varray>
   <i name="volume">   8584.15161224 </i>
   <varray name="rec_basis" >
    <v>       0.04483685       0.02595827       0.00000000 </v>
    <v>      -0.00001981       0.05195193       0.00000000 </v>
    <v>       0.00000000       0.00000000       0.05000000 </v>
   </varray>
  </crystal>
  <varray name="positions" >
   <v>       0.57545593       0.14033655       0.49404931 </v>
   <v>       0.86276053       0.42658960       0.49348576 </v>
   <v>       0.57752630       0.42871348       0.49205336 </v>
   <v>       0.55705074       0.03673363       0.54088174 </v>
   <v>       0.52574596       0.96681255       0.54149842 </v>
   <v>       0.45300642       0.85755378       0.50129329 </v>
   <v>       0.96597510       0.51178430       0.54041202 </v>
   <v>       0.03567380       0.55034226       0.54114983 </v>
   <v>       0.14469374       0.58642252       0.50148941 </v>
   <v>       0.49287675       0.44698144       0.53952519 </v>
   <v>       0.45372523       0.47749359       0.54022128 </v>
   <v>       0.41543925       0.54854682       0.49961772 </v>
   <v>       0.34073893       0.82829397       0.47639841 </v>
   <v>       0.17332888       0.50256458       0.47804133 </v>
   <v>       0.49767893       0.66077715       0.47251767 </v>
   <v>       0.68602617       0.17437409       0.53162950 </v>
   <v>       0.82926220       0.50397082       0.53035448 </v>
   <v>       0.50024746       0.31741925       0.52809596 </v>
   <v>       0.26616106       0.61661832       0.50241594 </v>
   <v>       0.31370987       0.59276900       0.50169265 </v>
   <v>       0.38486255       0.63981699       0.50085486 </v>
   <v>       0.40871180       0.71139005       0.50107004 </v>
   <v>       0.29047323       0.68796406       0.50258190 </v>
   <v>       0.19117851       0.56276497       0.49411687 </v>
   <v>       0.43838468       0.61858969       0.49085498 </v>
   <v>       0.74164004       0.38472593       0.51700517 </v>
   <v>       0.68883822       0.40148729       0.51678892 </v>
   <v>       0.61931893       0.34918010       0.51611764 </v>
   <v>       0.60257537       0.27943764       0.51701332 </v>
   <v>       0.72423543       0.31502658       0.51795609 </v>
   <v>       0.81492445       0.44466677       0.51575665 </v>
   <v>       0.55952359       0.36259074       0.51410184 </v>
   <v>       0.47438391       0.95912698       0.43224944 </v>
   <v>       0.50793904       0.03294631       0.43115258 </v>
   <v>       0.54670883       0.06813413       0.48974488 </v>
   <v>       0.50427967       0.06698541       0.37277257 </v>
   <v>       0.46849753       0.02870078       0.31736320 </v>
   <v>       0.43618730       0.95552291       0.31815729 </v>
   <v>       0.43915658       0.92113905       0.37446136 </v>
   <v>       0.04361980       0.50605890       0.43227923 </v>
   <v>       0.96999487       0.46607819       0.43088055 </v>
   <v>       0.93477375       0.46991034       0.48927632 </v>
   <v>       0.93619189       0.42837504       0.37242158 </v>
   <v>       0.97453807       0.43051357       0.31727062 </v>
   <v>       0.04754413       0.47104936       0.31839896 </v>
   <v>       0.08169097       0.50844929       0.37475227 </v>
   <v>       0.49486981       0.52708832       0.42983793 </v>
   <v>       0.53585115       0.49446922       0.42876817 </v>
   <v>       0.53373134       0.45692684       0.48778055 </v>
   <v>       0.57284683       0.49777004       0.37003187 </v>
   <v>       0.56895629       0.53230293       0.31424953 </v>
   <v>       0.52728655       0.56357923       0.31499475 </v>
   <v>       0.49060305       0.56093025       0.37162540 </v>
   <v>       0.36184130       0.73568062       0.50193037 </v>
   <v>       0.38298554       0.81075049       0.49323515 </v>
   <v>       0.65467317       0.26200460       0.51731502 </v>
   <v>       0.64120974       0.18852819       0.51651882 </v>
   <v>       0.48387380       0.92973871       0.49217529 </v>
   <v>       0.07274988       0.54516639       0.49214799 </v>
   <v>       0.45702059       0.51816381       0.49029026 </v>
   <v>       0.46447551       0.74620645       0.49640165 </v>
   <v>       0.25584323       0.70922560       0.49911717 </v>
   <v>       0.29251333       0.53679372       0.49762132 </v>
   <v>       0.54752561       0.24059026       0.51930479 </v>
   <v>       0.76300068       0.29881021       0.52104494 </v>
   <v>       0.70512495       0.45666959       0.51896793 </v>
   <v>       0.53114694       0.12357833       0.37074361 </v>
   <v>       0.46605491       0.05512366       0.27238298 </v>
   <v>       0.40897376       0.92593295       0.27377403 </v>
   <v>       0.41436975       0.86479707       0.37437004 </v>
   <v>       0.54712332       0.15968012       0.47330479 </v>
   <v>       0.87975255       0.39897827       0.37012359 </v>
   <v>       0.94833145       0.40164328       0.27222617 </v>
   <v>       0.07717929       0.47315667       0.27420110 </v>
   <v>       0.13789605       0.53980223       0.37487517 </v>
   <v>       0.84330627       0.37868438       0.47297853 </v>
   <v>       0.60310312       0.47158461       0.36813109 </v>
   <v>       0.59730550       0.53453679       0.26900122 </v>
   <v>       0.52375603       0.58970450       0.27028498 </v>
   <v>       0.45844365       0.58491194       0.37150083 </v>
   <v>       0.62535519       0.45750536       0.47174906 </v>
   <v>       0.48004934       0.84424964       0.53322541 </v>
   <v>       0.15794598       0.62719740       0.53295204 </v>
   <v>       0.37600318       0.52181454       0.53257517 </v>
  </varray>
 </structure>
 <calculation>
  <scstep>
   <time name="dav">  259.53  262.16</time>
   <time name="total">  259.71  262.34</time>
   <energy>
    <i name="alphaZ">     44.23772794 </i>
    <i name="ewald">  32586.08500717 </i>
    <i name="hartreedc"> -42671.65789734 </i>
    <i name="XCdc">   1056.88466101 </i>
    <i name="pawpsdc">  27205.19174006 </i>
    <i name="pawaedc"> -27263.24157051 </i>
    <i name="eentropy">     -0.00000000 </i>
    <i name="bandstr">  -3808.75322389 </i>
    <i name="atom">  12248.46482840 </i>
    <i name="e_fr_energy">   -602.78872716 </i>
    <i name="e_wo_entrp">   -602.78872716 </i>
    <i name="e_0_energy">   -602.78872716 </i>
   </energy>
  </scstep>
  <scstep>
   <time name="dav">  295.81  298.74</time>
   <time name="total">  295.81  298.74</time>
   <energy>
    <i name="e_fr_energy">   -603.48979995 </i>
    <i name="e_wo_entrp">   -603.48979995 </i>
    <i name="e_0_energy">   -603.48979995 </i>
   </energy>
  </scstep>
  <scstep>
   <time name="dav">  319.56  322.73</time>
   <time name="total">  319.56  322.73</time>
   <energy>
    <i name="e_fr_energy">   -603.50807085 </i>
    <i name="e_wo_entrp">   -603.50807085 </i>
    <i name="e_0_energy">   -603.50807085 </i>
   </energy>
  </scstep>
  <scstep>
   <time name="dav">  292.86  295.75</time>
   <time name="total">  292.86  295.75</time>
   <energy>
    <i name="e_fr_energy">   -603.50849367 </i>
    <i name="e_wo_entrp">   -603.50849367 </i>
    <i name="e_0_energy">   -603.50849367 </i>
   </energy>
  </scstep>
  <scstep>
   <time name="dav">  275.65  279.85</time>
   <time name="total">  275.65  279.85</time>
   <energy>
    <i name="e_fr_energy">   -603.50850862 </i>
    <i name="e_wo_entrp">   -603.50850862 </i>
    <i name="e_0_energy">   -603.50850862 </i>
   </energy>
  </scstep>
  <scstep>
   <time name="dav">  220.19  227.28</time>
   <time name="total">  220.20  227.28</time>
   <energy>
    <i name="alphaZ">     44.23772794 </i>
    <i name="ewald">  32586.08500717 </i>
    <i name="hartreedc"> -42671.65789734 </i>
    <i name="XCdc">   1056.88466101 </i>
    <i name="pawpsdc">  27205.19174006 </i>
    <i name="pawaedc"> -27263.24157051 </i>
    <i name="eentropy">     -0.00000000 </i>
    <i name="bandstr">  -3809.47300603 </i>
    <i name="atom">  12248.46482840 </i>
    <i name="e_fr_energy">   -603.50850929 </i>
    <i name="e_wo_entrp">   -603.50850929 </i>
    <i name="e_0_energy">   -603.50850929 </i>
   </energy>
  </scstep>
  <structure>
   <crystal>
    <varray name="basis" >
     <v>      22.29816113       0.00850179       0.00000000 </v>
     <v>     -11.14148596      19.24431595       0.00000000 </v>
     <v>       0.00000000       0.00000000      20.00000000 </v>
    </varray>
    <i name="volume">   8584.15161224 </i>
    <varray name="rec_basis" >
     <v>       0.04483685       0.02595827       0.00000000 </v>
     <v>      -0.00001981       0.05195193       0.00000000 </v>
     <v>       0.00000000       0.00000000       0.05000000 </v>
    </varray>
   </crystal>
   <varray name="positions" >
    <v>       0.57545593       0.14033655       0.49404931 </v>
    <v>       0.86276053       0.42658960       0.49348576 </v>
    <v>       0.57752630       0.42871348       0.49205336 </v>
    <v>       0.55705074       0.03673363       0.54088174 </v>
    <v>       0.52574596       0.96681255       0.54149842 </v>
    <v>       0.45300642       0.85755378       0.50129329 </v>
    <v>       0.96597510       0.51178430       0.54041202 </v>
    <v>       0.03567380       0.55034226       0.54114983 </v>
    <v>       0.14469374       0.58642252       0.50148941 </v>
    <v>       0.49287675       0.44698144       0.53952519 </v>
    <v>       0.45372523       0.47749359       0.54022128 </v>
    <v>       0.41543925       0.54854682       0.49961772 </v>
    <v>       0.34073893       0.82829397       0.47639841 </v>
    <v>       0.17332888       0.50256458       0.47804133 </v>
    <v>       0.49767893       0.66077715       0.47251767 </v>
    <v>       0.68602617       0.17437409       0.53162950 </v>
    <v>       0.82926220       0.50397082       0.53035448 </v>
    <v>       0.50024746       0.31741925       0.52809596 </v>
    <v>       0.26616106       0.61661832       0.50241594 </v>
    <v>       0.31370987       0.59276900       0.50169265 </v>
    <v>       0.38486255       0.63981699       0.50085486 </v>
    <v>       0.40871180       0.71139005       0.50107004 </v>
    <v>       0.29047323       0.68796406       0.50258190 </v>
    <v>       0.19117851       0.56276497       0.49411687 </v>
    <v>       0.43838468       0.61858969       0.49085498 </v>
    <v>       0.74164004       0.38472593       0.51700517 </v>
    <v>       0.68883822       0.40148729       0.51678892 </v>
    <v>       0.61931893       0.34918010       0.51611764 </v>
    <v>       0.60257537       0.27943764       0.51701332 </v>
    <v>       0.72423543       0.31502658       0.51795609 </v>
    <v>       0.81492445       0.44466677       0.51575665 </v>
    <v>       0.55952359       0.36259074       0.51410184 </v>
    <v>       0.47438391       0.95912698       0.43224944 </v>
    <v>       0.50793904       0.03294631       0.43115258 </v>
    <v>       0.54670883       0.06813413       0.48974488 </v>
    <v>       0.50427967       0.06698541       0.37277257 </v>
    <v>       0.46849753       0.02870078       0.31736320 </v>
    <v>       0.43618730       0.95552291       0.31815729 </v>
    <v>       0.43915658       0.92113905       0.37446136 </v>
    <v>       0.04361980       0.50605890       0.43227923 </v>
    <v>       0.96999487       0.46607819       0.43088055 </v>
    <v>       0.93477375       0.46991034       0.48927632 </v>
    <v>       0.93619189       0.42837504       0.37242158 </v>
    <v>       0.97453807       0.43051357       0.31727062 </v>
    <v>       0.04754413       0.47104936       0.31839896 </v>
    <v>       0.08169097       0.50844929       0.37475227 </v>
    <v>       0.49486981       0.52708832       0.42983793 </v>
    <v>       0.53585115       0.49446922       0.42876817 </v>
    <v>       0.53373134       0.45692684       0.48778055 </v>
    <v>       0.57284683       0.49777004       0.37003187 </v>
    <v>       0.56895629       0.53230293       0.31424953 </v>
    <v>       0.52728655       0.56357923       0.31499475 </v>
    <v>       0.49060305       0.56093025       0.37162540 </v>
    <v>       0.36184130       0.73568062       0.50193037 </v>
    <v>       0.38298554       0.81075049       0.49323515 </v>
    <v>       0.65467317       0.26200460       0.51731502 </v>
    <v>       0.64120974       0.18852819       0.51651882 </v>
    <v>       0.48387380       0.92973871       0.49217529 </v>
    <v>       0.07274988       0.54516639       0.49214799 </v>
    <v>       0.45702059       0.51816381       0.49029026 </v>
    <v>       0.46447551       0.74620645       0.49640165 </v>
    <v>       0.25584323       0.70922560       0.49911717 </v>
    <v>       0.29251333       0.53679372       0.49762132 </v>
    <v>       0.54752561       0.24059026       0.51930479 </v>
    <v>       0.76300068       0.29881021       0.52104494 </v>
    <v>       0.70512495       0.45666959       0.51896793 </v>
    <v>       0.53114694       0.12357833       0.37074361 </v>
    <v>       0.46605491       0.05512366       0.27238298 </v>
    <v>       0.40897376       0.92593295       0.27377403 </v>
    <v>       0.41436975       0.86479707       0.37437004 </v>
    <v>       0.54712332       0.15968012       0.47330479 </v>
    <v>       0.87975255       0.39897827       0.37012359 </v>
    <v>       0.94833145       0.40164328       0.27222617 </v>
    <v>       0.07717929       0.47315667       0.27420110 </v>
    <v>       0.13789605       0.53980223       0.37487517 </v>
    <v>       0.84330627       0.37868438       0.47297853 </v>
    <v>       0.60310312       0.47158461       0.36813109 </v>
    <v>       0.59730550       0.53453679       0.26900122 </v>
    <v>       0.52375603       0.58970450       0.27028498 </v>
    <v>       0.45844365       0.58491194       0.37150083 </v>
    <v>       0.62535519       0.45750536       0.47174906 </v>
    <v>       0.48004934       0.84424964       0.53322541 </v>
    <v>       0.15794598       0.62719740       0.53295204 </v>
    <v>       0.37600318       0.52181454       0.53257517 </v>
   </varray>
  </structure>
  <varray name="forces" >
   <v>      -0.00267473      -0.00329681       0.00073209 </v>
   <v>      -0.00353962      -0.00109726       0.00144899 </v>
   <v>      -0.00105219       0.00073954      -0.00025534 </v>
   <v>       0.00182087      -0.00171202      -0.00120863 </v>
   <v>       0.00005290       0.00040432      -0.00135408 </v>
   <v>      -0.00081731      -0.00467756      -0.00093300 </v>
   <v>       0.00103402       0.00320483       0.00200684 </v>
   <v>      -0.00094950       0.00059414       0.00257126 </v>
   <v>       0.00239367      -0.00235754      -0.00271694 </v>
   <v>       0.00449297       0.00457738      -0.00073833 </v>
   <v>      -0.00569704       0.00304442      -0.00263443 </v>
   <v>       0.00732712      -0.00073834      -0.00171706 </v>
   <v>       0.00709465      -0.00140398       0.00084745 </v>
   <v>       0.00013757      -0.00631484      -0.00194699 </v>
   <v>      -0.00198947       0.00230734       0.00192859 </v>
   <v>       0.00074650      -0.00090720       0.00202063 </v>
   <v>       0.00032516      -0.00361841      -0.00110009 </v>
   <v>      -0.00396978      -0.00207720       0.00343793 </v>
   <v>       0.00066889      -0.00170473      -0.00094047 </v>
   <v>       0.00048898       0.00068900      -0.00218660 </v>
   <v>      -0.00104390      -0.00112284      -0.00163400 </v>
   <v>      -0.00038003       0.00073175      -0.00145627 </v>
   <v>      -0.00152631      -0.00191641      -0.00249329 </v>
   <v>      -0.00165332       0.00535704       0.00181410 </v>
   <v>       0.00337216       0.00586025      -0.00230118 </v>
   <v>      -0.00308909       0.00211874       0.00248868 </v>
   <v>       0.00274533       0.00083006       0.00216992 </v>
   <v>       0.00010419      -0.00208875       0.00089552 </v>
   <v>      -0.00063541       0.00121601       0.00188271 </v>
   <v>      -0.00272235      -0.00173215       0.00139903 </v>
   <v>       0.00389375       0.00228258       0.00169937 </v>
   <v>       0.00316297       0.00668112       0.00029171 </v>
   <v>       0.00094941       0.00163924       0.00400474 </v>
   <v>       0.00130006      -0.00030209       0.00433003 </v>
   <v>       0.00013065       0.00013657      -0.00168639 </v>
   <v>      -0.00165100       0.00162641      -0.00046087 </v>
   <v>      -0.00281980       0.00632989      -0.00068103 </v>
   <v>      -0.00148013      -0.00432597       0.00171549 </v>
   <v>      -0.00190002      -0.00140434      -0.00479227 </v>
   <v>      -0.00004209      -0.00059292       0.00083228 </v>
   <v>      -0.00127909      -0.00234350       0.00163783 </v>
   <v>       0.00214599      -0.00126019      -0.00052362 </v>
   <v>      -0.00252242      -0.00214741       0.00154464 </v>
   <v>      -0.00346618      -0.00316797       0.00269115 </v>
   <v>      -0.00044424      -0.00305268      -0.00072955 </v>
   <v>      -0.00019909      -0.00063104      -0.00304650 </v>
   <v>       0.00174190      -0.00015651       0.00131670 </v>
   <v>       0.00152266       0.00087892      -0.00031942 </v>
   <v>       0.00312125       0.00013680       0.00132917 </v>
   <v>      -0.00065602      -0.00007728       0.00248688 </v>
   <v>       0.00024347       0.00011378      -0.00106464 </v>
   <v>       0.00662304      -0.00177938      -0.00081348 </v>
   <v>       0.00325134      -0.00085100       0.00476546 </v>
   <v>       0.00082249      -0.00069076      -0.00197759 </v>
   <v>      -0.00559653       0.00285469      -0.00362393 </v>
   <v>       0.00178658      -0.00059325       0.00124835 </v>
   <v>      -0.00261611      -0.00228762      -0.00033177 </v>
   <v>      -0.00211508       0.00618898      -0.00224313 </v>
   <v>      -0.00044288      -0.00252810      -0.00313003 </v>
   <v>       0.00187208       0.00223587      -0.00166189 </v>
   <v>      -0.00080542       0.00009481      -0.00119962 </v>
   <v>      -0.00061220      -0.00168217      -0.00291602 </v>
   <v>       0.00046201       0.00014194       0.00004442 </v>
   <v>      -0.00070990      -0.00051534       0.00089768 </v>
   <v>       0.00021231      -0.00037803       0.00186275 </v>
   <v>      -0.00074948      -0.00193824       0.00284731 </v>
   <v>      -0.00028517       0.00155599       0.00019740 </v>
   <v>      -0.00240529       0.00235190      -0.00090418 </v>
   <v>      -0.00141596       0.00253589      -0.00013410 </v>
   <v>      -0.00104344       0.00291486      -0.00205967 </v>
   <v>       0.00050810       0.00177546       0.00143598 </v>
   <v>       0.00098706      -0.00228142       0.00299839 </v>
   <v>      -0.00167323      -0.00320322      -0.00029029 </v>
   <v>      -0.00066729      -0.00208057      -0.00042526 </v>
   <v>      -0.00008394      -0.00174123       0.00038261 </v>
   <v>      -0.00109847       0.00056755      -0.00070153 </v>
   <v>       0.00228166      -0.00023069       0.00093979 </v>
   <v>       0.00306584       0.00011642      -0.00029671 </v>
   <v>       0.00180395       0.00149007      -0.00233070 </v>
   <v>       0.00002802       0.00111684      -0.00024062 </v>
   <v>       0.00092068      -0.00048313       0.00186238 </v>
   <v>      -0.00210238       0.00076332      -0.00310038 </v>
   <v>      -0.00042271       0.00149169       0.00164861 </v>
   <v>      -0.00259670      -0.00020435      -0.00335298 </v>
  </varray>
  <varray name="stress" >
   <v>       0.19805223       0.01072135      -0.00537905 </v>
   <v>       0.01072136       0.19051137       0.00101801 </v>
   <v>      -0.00537905       0.00101802      -0.22445631 </v>
  </varray>
  <energy>
   <i name="e_fr_energy">   -605.28402232 </i>
   <i name="e_wo_entrp">   -605.28402232 </i>
   <i name="e_0_energy">     -0.00000000 </i>
  </energy>
  <time name="totalsc"> 1965.70 1995.09</time>
  <eigenvalues>
   <array>
    <dimension dim="1">band</dimension>
    <dimension dim="2">kpoint</dimension>
    <dimension dim="3">spin</dimension>
    <field>eigene</field>
    <field>occ</field>
    <set>
     <set comment="spin 1">
      <set comment="kpoint 1">
       <r>  -26.2438    1.0000 </r>
       <r>  -26.2304    1.0000 </r>
       <r>  -26.2272    1.0000 </r>
       <r>  -26.0067    1.0000 </r>
       <r>  -25.9921    1.0000 </r>
       <r>  -25.9917    1.0000 </r>
       <r>  -25.3411    1.0000 </r>
       <r>  -25.3377    1.0000 </r>
       <r>  -25.3347    1.0000 </r>
       <r>  -23.7850    1.0000 </r>
       <r>  -23.7821    1.0000 </r>
       <r>  -23.7764    1.0000 </r>
       <r>  -23.2295    1.0000 </r>
       <r>  -23.2244    1.0000 </r>
       <r>  -23.2201    1.0000 </r>
       <r>  -22.0001    1.0000 </r>
       <r>  -21.8770    1.0000 </r>
       <r>  -21.7127    1.0000 </r>
       <r>  -21.7119    1.0000 </r>
       <r>  -21.6744    1.0000 </r>
       <r>  -20.3437    1.0000 </r>
       <r>  -20.3411    1.0000 </r>
       <r>  -20.0543    1.0000 </r>
       <r>  -19.6480    1.0000 </r>
       <r>  -19.6473    1.0000 </r>
       <r>  -19.4479    1.0000 </r>
       <r>  -19.2605    1.0000 </r>
       <r>  -19.2597    1.0000 </r>
       <r>  -19.0973    1.0000 </r>
       <r>  -19.0958    1.0000 </r>
       <r>  -18.9271    1.0000 </r>
       <r>  -18.9261    1.0000 </r>
       <r>  -18.9245    1.0000 </r>
       <r>  -17.1850    1.0000 </r>
       <r>  -17.1036    1.0000 </r>
       <r>  -17.0991    1.0000 </r>
       <r>  -16.5838    1.0000 </r>
       <r>  -16.5798    1.0000 </r>
       <r>  -16.5184    1.0000 </r>
       <r>  -16.0172    1.0000 </r>
       <r>  -16.0152    1.0000 </r>
       <r>  -15.8824    1.0000 </r>
       <r>  -15.8818    1.0000 </r>
       <r>  -15.7827    1.0000 </r>
       <r>  -15.5632    1.0000 </r>
       <r>  -15.1654    1.0000 </r>
       <r>  -15.1641    1.0000 </r>
       <r>  -14.8078    1.0000 </r>
       <r>  -14.8019    1.0000 </r>
       <r>  -14.6245    1.0000 </r>
       <r>  -14.3810    1.0000 </r>
       <r>  -14.1486    1.0000 </r>
       <r>  -14.1439    1.0000 </r>
       <r>  -14.0095    1.0000 </r>
       <r>  -13.8568    1.0000 </r>
       <r>  -13.8541    1.0000 </r>
       <r>  -13.3354    1.0000 </r>
       <r>  -13.2895    1.0000 </r>
       <r>  -13.2875    1.0000 </r>
       <r>  -13.2078    1.0000 </r>
       <r>  -13.0017    1.0000 </r>
       <r>  -12.9889    1.0000 </r>
       <r>  -12.9528    1.0000 </r>
       <r>  -12.3408    1.0000 </r>
       <r>  -12.3262    1.0000 </r>
       <r>  -12.3254    1.0000 </r>
       <r>  -12.1373    1.0000 </r>
       <r>  -12.0573    1.0000 </r>
       <r>  -11.6606    1.0000 </r>
       <r>  -11.6535    1.0000 </r>
       <r>  -11.6495    1.0000 </r>
       <r>  -11.4427    1.0000 </r>
       <r>  -11.3898    1.0000 </r>
       <r>  -11.3871    1.0000 </r>
       <r>  -11.2414    1.0000 </r>
       <r>  -11.2400    1.0000 </r>
       <r>  -11.2129    1.0000 </r>
       <r>  -11.0813    1.0000 </r>
       <r>  -11.0234    1.0000 </r>
       <r>  -11.0189    1.0000 </r>
       <r>  -10.9482    1.0000 </r>
       <r>  -10.9465    1.0000 </r>
       <r>  -10.8552    1.0000 </r>
       <r>  -10.6596    1.0000 </r>
       <r>  -10.6227    1.0000 </r>
       <r>  -10.6203    1.0000 </r>
       <r>  -10.4417    1.0000 </r>
       <r>  -10.3669    1.0000 </r>
       <r>  -10.2552    1.0000 </r>
       <r>  -10.2533    1.0000 </r>
       <r>  -10.1347    1.0000 </r>
       <r>  -10.1301    1.0000 </r>
       <r>  -10.0392    1.0000 </r>
       <r>  -10.0354    1.0000 </r>
       <r>  -10.0336    1.0000 </r>
       <r>   -9.8997    1.0000 </r>
       <r>   -9.8979    1.0000 </r>
       <r>   -9.8059    1.0000 </r>
       <r>   -9.2394    1.0000 </r>
       <r>   -9.1687    1.0000 </r>
       <r>   -9.1653    1.0000 </r>
       <r>   -9.1641    1.0000 </r>
       <r>   -9.1171    1.0000 </r>
       <r>   -9.1137    1.0000 </r>
       <r>   -9.1122    1.0000 </r>
       <r>   -9.0216    1.0000 </r>
       <r>   -9.0185    1.0000 </r>
       <r>   -8.9136    1.0000 </r>
       <r>   -8.9099    1.0000 </r>
       <r>   -8.8507    1.0000 </r>
       <r>   -8.6281    1.0000 </r>
       <r>   -8.6142    1.0000 </r>
       <r>   -8.6125    1.0000 </r>
       <r>   -8.3333    1.0000 </r>
       <r>   -8.3263    1.0000 </r>
       <r>   -8.1393    1.0000 </r>
       <r>   -7.5974    1.0000 </r>
       <r>   -7.5937    1.0000 </r>
       <r>   -7.5389    1.0000 </r>
       <r>   -7.1038    1.0000 </r>
       <r>   -7.0987    1.0000 </r>
       <r>   -7.0847    1.0000 </r>
       <r>   -6.9264    1.0000 </r>
       <r>   -6.9217    1.0000 </r>
       <r>   -6.7799    1.0000 </r>
       <r>   -6.7783    1.0000 </r>
       <r>   -6.7379    1.0000 </r>
       <r>   -6.6767    1.0000 </r>
       <r>   -6.6742    1.0000 </r>
       <r>   -6.6573    1.0000 </r>
       <r>   -6.6253    1.0000 </r>
       <r>   -6.6213    1.0000 </r>
       <r>   -6.2575    1.0000 </r>
       <r>   -6.0715    1.0000 </r>
       <r>   -6.0706    1.0000 </r>
       <r>   -6.0084    1.0000 </r>
       <r>   -5.8087    1.0000 </r>
       <r>   -5.8068    1.0000 </r>
       <r>   -5.5599    1.0000 </r>
       <r>   -5.5278    1.0000 </r>
       <r>   -5.5212    1.0000 </r>
       <r>   -5.0800    1.0000 </r>
       <r>   -5.0633    1.0000 </r>
       <r>   -5.0578    1.0000 </r>
       <r>   -2.9207    0.0000 </r>
       <r>   -2.9194    0.0000 </r>
       <r>   -2.6728    0.0000 </r>
       <r>   -2.5287    0.0000 </r>
       <r>   -2.5249    0.0000 </r>
       <r>   -2.1924    0.0000 </r>
       <r>   -2.1886    0.0000 </r>
       <r>   -2.0580    0.0000 </r>
       <r>   -2.0310    0.0000 </r>
       <r>   -2.0293    0.0000 </r>
       <r>   -1.4422    0.0000 </r>
       <r>   -1.2338    0.0000 </r>
       <r>   -0.6862    0.0000 </r>
       <r>   -0.5721    0.0000 </r>
       <r>   -0.5709    0.0000 </r>
       <r>   -0.3984    0.0000 </r>
       <r>   -0.2641    0.0000 </r>
       <r>   -0.2616    0.0000 </r>
       <r>   -0.1894    0.0000 </r>
       <r>    0.0194    0.0000 </r>
       <r>    0.1290    0.0000 </r>
       <r>    0.1341    0.0000 </r>
       <r>    0.2024    0.0000 </r>
       <r>    0.2064    0.0000 </r>
       <r>    0.2677    0.0000 </r>
       <r>    0.3582    0.0000 </r>
       <r>    0.3608    0.0000 </r>
       <r>    0.4163    0.0000 </r>
       <r>    0.6183    0.0000 </r>
       <r>    0.6240    0.0000 </r>
       <r>    0.6254    0.0000 </r>
       <r>    0.6950    0.0000 </r>
       <r>    0.7071    0.0000 </r>
       <r>    0.7181    0.0000 </r>
       <r>    0.7426    0.0000 </r>
       <r>    0.7452    0.0000 </r>
       <r>    0.7914    0.0000 </r>
       <r>    0.8855    0.0000 </r>
       <r>    0.8901    0.0000 </r>
       <r>    0.9046    0.0000 </r>
       <r>    0.9180    0.0000 </r>
       <r>    0.9460    0.0000 </r>
       <r>    0.9494    0.0000 </r>
       <r>    0.9999    0.0000 </r>
       <r>    1.0554    0.0000 </r>
       <r>    1.0589    0.0000 </r>
       <r>    1.1582    0.0000 </r>
       <r>    1.1646    0.0000 </r>
      </set>
      <set comment="kpoint 2">
       <r>  -26.2438    1.0000 </r>
       <r>  -26.2304    1.0000 </r>
       <r>  -26.2272    1.0000 </r>
       <r>  -26.0067    1.0000 </r>
       <r>  -25.9921    1.0000 </r>
       <r>  -25.9917    1.0000 </r>
       <r>  -25.3411    1.0000 </r>
       <r>  -25.3377    1.0000 </r>
       <r>  -25.3347    1.0000 </r>
       <r>  -23.7850    1.0000 </r>
       <r>  -23.7821    1.0000 </r>
       <r>  -23.7764    1.0000 </r>
       <r>  -23.2294    1.0000 </r>
       <r>  -23.2244    1.0000 </r>
       <r>  -23.2201    1.0000 </r>
       <r>  -22.0000    1.0000 </r>
       <r>  -21.8770    1.0000 </r>
       <r>  -21.7126    1.0000 </r>
       <r>  -21.7119    1.0000 </r>
       <r>  -21.6744    1.0000 </r>
       <r>  -20.3435    1.0000 </r>
       <r>  -20.3409    1.0000 </r>
       <r>  -20.0550    1.0000 </r>
       <r>  -19.6476    1.0000 </r>
       <r>  -19.6470    1.0000 </r>
       <r>  -19.4480    1.0000 </r>
       <r>  -19.2605    1.0000 </r>
       <r>  -19.2596    1.0000 </r>
       <r>  -19.0973    1.0000 </r>
       <r>  -19.0960    1.0000 </r>
       <r>  -18.9271    1.0000 </r>
       <r>  -18.9261    1.0000 </r>
       <r>  -18.9245    1.0000 </r>
       <r>  -17.1849    1.0000 </r>
       <r>  -17.1036    1.0000 </r>
       <r>  -17.0992    1.0000 </r>
       <r>  -16.5837    1.0000 </r>
       <r>  -16.5797    1.0000 </r>
       <r>  -16.5185    1.0000 </r>
       <r>  -16.0171    1.0000 </r>
       <r>  -16.0152    1.0000 </r>
       <r>  -15.8824    1.0000 </r>
       <r>  -15.8818    1.0000 </r>
       <r>  -15.7826    1.0000 </r>
       <r>  -15.5636    1.0000 </r>
       <r>  -15.1652    1.0000 </r>
       <r>  -15.1636    1.0000 </r>
       <r>  -14.8078    1.0000 </r>
       <r>  -14.8022    1.0000 </r>
       <r>  -14.6243    1.0000 </r>
       <r>  -14.3810    1.0000 </r>
       <r>  -14.1487    1.0000 </r>
       <r>  -14.1439    1.0000 </r>
       <r>  -14.0112    1.0000 </r>
       <r>  -13.8555    1.0000 </r>
       <r>  -13.8534    1.0000 </r>
       <r>  -13.3377    1.0000 </r>
       <r>  -13.2882    1.0000 </r>
       <r>  -13.2869    1.0000 </r>
       <r>  -13.2076    1.0000 </r>
       <r>  -13.0017    1.0000 </r>
       <r>  -12.9889    1.0000 </r>
       <r>  -12.9529    1.0000 </r>
       <r>  -12.3414    1.0000 </r>
       <r>  -12.3256    1.0000 </r>
       <r>  -12.3253    1.0000 </r>
       <r>  -12.1373    1.0000 </r>
       <r>  -12.0573    1.0000 </r>
       <r>  -11.6606    1.0000 </r>
       <r>  -11.6535    1.0000 </r>
       <r>  -11.6495    1.0000 </r>
       <r>  -11.4427    1.0000 </r>
       <r>  -11.3898    1.0000 </r>
       <r>  -11.3871    1.0000 </r>
       <r>  -11.2414    1.0000 </r>
       <r>  -11.2400    1.0000 </r>
       <r>  -11.2129    1.0000 </r>
       <r>  -11.0812    1.0000 </r>
       <r>  -11.0234    1.0000 </r>
       <r>  -11.0189    1.0000 </r>
       <r>  -10.9481    1.0000 </r>
       <r>  -10.9465    1.0000 </r>
       <r>  -10.8552    1.0000 </r>
       <r>  -10.6596    1.0000 </r>
       <r>  -10.6227    1.0000 </r>
       <r>  -10.6203    1.0000 </r>
       <r>  -10.4417    1.0000 </r>
       <r>  -10.3670    1.0000 </r>
       <r>  -10.2552    1.0000 </r>
       <r>  -10.2532    1.0000 </r>
       <r>  -10.1347    1.0000 </r>
       <r>  -10.1299    1.0000 </r>
       <r>  -10.0393    1.0000 </r>
       <r>  -10.0356    1.0000 </r>
       <r>  -10.0333    1.0000 </r>
       <r>   -9.8997    1.0000 </r>
       <r>   -9.8982    1.0000 </r>
       <r>   -9.8058    1.0000 </r>
       <r>   -9.2393    1.0000 </r>
       <r>   -9.1688    1.0000 </r>
       <r>   -9.1652    1.0000 </r>
       <r>   -9.1641    1.0000 </r>
       <r>   -9.1188    1.0000 </r>
       <r>   -9.1125    1.0000 </r>
       <r>   -9.1114    1.0000 </r>
       <r>   -9.0216    1.0000 </r>
       <r>   -9.0184    1.0000 </r>
       <r>   -8.9137    1.0000 </r>
       <r>   -8.9100    1.0000 </r>
       <r>   -8.8511    1.0000 </r>
       <r>   -8.6281    1.0000 </r>
       <r>   -8.6143    1.0000 </r>
       <r>   -8.6125    1.0000 </r>
       <r>   -8.3331    1.0000 </r>
       <r>   -8.3261    1.0000 </r>
       <r>   -8.1395    1.0000 </r>
       <r>   -7.5973    1.0000 </r>
       <r>   -7.5937    1.0000 </r>
       <r>   -7.5390    1.0000 </r>
       <r>   -7.1038    1.0000 </r>
       <r>   -7.0987    1.0000 </r>
       <r>   -7.0847    1.0000 </r>
       <r>   -6.9264    1.0000 </r>
       <r>   -6.9217    1.0000 </r>
       <r>   -6.7799    1.0000 </r>
       <r>   -6.7783    1.0000 </r>
       <r>   -6.7378    1.0000 </r>
       <r>   -6.6767    1.0000 </r>
       <r>   -6.6742    1.0000 </r>
       <r>   -6.6573    1.0000 </r>
       <r>   -6.6253    1.0000 </r>
       <r>   -6.6213    1.0000 </r>
       <r>   -6.2575    1.0000 </r>
       <r>   -6.0715    1.0000 </r>
       <r>   -6.0706    1.0000 </r>
       <r>   -6.0083    1.0000 </r>
       <r>   -5.8087    1.0000 </r>
       <r>   -5.8068    1.0000 </r>
       <r>   -5.5598    1.0000 </r>
       <r>   -5.5278    1.0000 </r>
       <r>   -5.5212    1.0000 </r>
       <r>   -5.0800    1.0000 </r>
       <r>   -5.0633    1.0000 </r>
       <r>   -5.0578    1.0000 </r>
       <r>   -2.9206    0.0000 </r>
       <r>   -2.9194    0.0000 </r>
       <r>   -2.6737    0.0000 </r>
       <r>   -2.5280    0.0000 </r>
       <r>   -2.5244    0.0000 </r>
       <r>   -2.1925    0.0000 </r>
       <r>   -2.1888    0.0000 </r>
       <r>   -2.0579    0.0000 </r>
       <r>   -2.0310    0.0000 </r>
       <r>   -2.0293    0.0000 </r>
       <r>   -1.4422    0.0000 </r>
       <r>   -1.2339    0.0000 </r>
       <r>   -0.6862    0.0000 </r>
       <r>   -0.5717    0.0000 </r>
       <r>   -0.5707    0.0000 </r>
       <r>   -0.3991    0.0000 </r>
       <r>   -0.2638    0.0000 </r>
       <r>   -0.2611    0.0000 </r>
       <r>   -0.1902    0.0000 </r>
       <r>    0.0194    0.0000 </r>
       <r>    0.1290    0.0000 </r>
       <r>    0.1338    0.0000 </r>
       <r>    0.2026    0.0000 </r>
       <r>    0.2066    0.0000 </r>
       <r>    0.2678    0.0000 </r>
       <r>    0.3587    0.0000 </r>
       <r>    0.3608    0.0000 </r>
       <r>    0.4166    0.0000 </r>
       <r>    0.6173    0.0000 </r>
       <r>    0.6246    0.0000 </r>
       <r>    0.6256    0.0000 </r>
       <r>    0.6933    0.0000 </r>
       <r>    0.7068    0.0000 </r>
       <r>    0.7191    0.0000 </r>
       <r>    0.7417    0.0000 </r>
       <r>    0.7451    0.0000 </r>
       <r>    0.7922    0.0000 </r>
       <r>    0.8849    0.0000 </r>
       <r>    0.8880    0.0000 </r>
       <r>    0.9054    0.0000 </r>
       <r>    0.9182    0.0000 </r>
       <r>    0.9468    0.0000 </r>
       <r>    0.9509    0.0000 </r>
       <r>    0.9987    0.0000 </r>
       <r>    1.0555    0.0000 </r>
       <r>    1.0598    0.0000 </r>
       <r>    1.1579    0.0000 </r>
       <r>    1.1646    0.0000 </r>
      </set>
      <set comment="kpoint 3">
       <r>  -26.2438    1.0000 </r>
       <r>  -26.2304    1.0000 </r>
       <r>  -26.2272    1.0000 </r>
       <r>  -26.0067    1.0000 </r>
       <r>  -25.9921    1.0000 </r>
       <r>  -25.9917    1.0000 </r>
       <r>  -25.3411    1.0000 </r>
       <r>  -25.3377    1.0000 </r>
       <r>  -25.3347    1.0000 </r>
       <r>  -23.7850    1.0000 </r>
       <r>  -23.7821    1.0000 </r>
       <r>  -23.7764    1.0000 </r>
       <r>  -23.2294    1.0000 </r>
       <r>  -23.2244    1.0000 </r>
       <r>  -23.2201    1.0000 </r>
       <r>  -22.0000    1.0000 </r>
       <r>  -21.8770    1.0000 </r>
       <r>  -21.7126    1.0000 </r>
       <r>  -21.7118    1.0000 </r>
       <r>  -21.6746    1.0000 </r>
       <r>  -20.3433    1.0000 </r>
       <r>  -20.3402    1.0000 </r>
       <r>  -20.0571    1.0000 </r>
       <r>  -19.6475    1.0000 </r>
       <r>  -19.6453    1.0000 </r>
       <r>  -19.4484    1.0000 </r>
       <r>  -19.2605    1.0000 </r>
       <r>  -19.2594    1.0000 </r>
       <r>  -19.0973    1.0000 </r>
       <r>  -19.0966    1.0000 </r>
       <r>  -18.9271    1.0000 </r>
       <r>  -18.9261    1.0000 </r>
       <r>  -18.9245    1.0000 </r>
       <r>  -17.1845    1.0000 </r>
       <r>  -17.1038    1.0000 </r>
       <r>  -17.0993    1.0000 </r>
       <r>  -16.5836    1.0000 </r>
       <r>  -16.5796    1.0000 </r>
       <r>  -16.5188    1.0000 </r>
       <r>  -16.0171    1.0000 </r>
       <r>  -16.0152    1.0000 </r>
       <r>  -15.8824    1.0000 </r>
       <r>  -15.8818    1.0000 </r>
       <r>  -15.7825    1.0000 </r>
       <r>  -15.5649    1.0000 </r>
       <r>  -15.1651    1.0000 </r>
       <r>  -15.1617    1.0000 </r>
       <r>  -14.8081    1.0000 </r>
       <r>  -14.8028    1.0000 </r>
       <r>  -14.6238    1.0000 </r>
       <r>  -14.3809    1.0000 </r>
       <r>  -14.1489    1.0000 </r>
       <r>  -14.1441    1.0000 </r>
       <r>  -14.0158    1.0000 </r>
       <r>  -13.8546    1.0000 </r>
       <r>  -13.8485    1.0000 </r>
       <r>  -13.3437    1.0000 </r>
       <r>  -13.2879    1.0000 </r>
       <r>  -13.2823    1.0000 </r>
       <r>  -13.2073    1.0000 </r>
       <r>  -13.0017    1.0000 </r>
       <r>  -12.9890    1.0000 </r>
       <r>  -12.9532    1.0000 </r>
       <r>  -12.3431    1.0000 </r>
       <r>  -12.3255    1.0000 </r>
       <r>  -12.3233    1.0000 </r>
       <r>  -12.1375    1.0000 </r>
       <r>  -12.0575    1.0000 </r>
       <r>  -11.6606    1.0000 </r>
       <r>  -11.6534    1.0000 </r>
       <r>  -11.6494    1.0000 </r>
       <r>  -11.4427    1.0000 </r>
       <r>  -11.3898    1.0000 </r>
       <r>  -11.3872    1.0000 </r>
       <r>  -11.2413    1.0000 </r>
       <r>  -11.2399    1.0000 </r>
       <r>  -11.2130    1.0000 </r>
       <r>  -11.0809    1.0000 </r>
       <r>  -11.0236    1.0000 </r>
       <r>  -11.0190    1.0000 </r>
       <r>  -10.9481    1.0000 </r>
       <r>  -10.9465    1.0000 </r>
       <r>  -10.8552    1.0000 </r>
       <r>  -10.6597    1.0000 </r>
       <r>  -10.6227    1.0000 </r>
       <r>  -10.6202    1.0000 </r>
       <r>  -10.4417    1.0000 </r>
       <r>  -10.3673    1.0000 </r>
       <r>  -10.2550    1.0000 </r>
       <r>  -10.2532    1.0000 </r>
       <r>  -10.1345    1.0000 </r>
       <r>  -10.1295    1.0000 </r>
       <r>  -10.0395    1.0000 </r>
       <r>  -10.0360    1.0000 </r>
       <r>  -10.0328    1.0000 </r>
       <r>   -9.8997    1.0000 </r>
       <r>   -9.8989    1.0000 </r>
       <r>   -9.8057    1.0000 </r>
       <r>   -9.2390    1.0000 </r>
       <r>   -9.1689    1.0000 </r>
       <r>   -9.1652    1.0000 </r>
       <r>   -9.1639    1.0000 </r>
       <r>   -9.1214    1.0000 </r>
       <r>   -9.1124    1.0000 </r>
       <r>   -9.1082    1.0000 </r>
       <r>   -9.0215    1.0000 </r>
       <r>   -9.0184    1.0000 </r>
       <r>   -8.9137    1.0000 </r>
       <r>   -8.9100    1.0000 </r>
       <r>   -8.8524    1.0000 </r>
       <r>   -8.6281    1.0000 </r>
       <r>   -8.6143    1.0000 </r>
       <r>   -8.6125    1.0000 </r>
       <r>   -8.3325    1.0000 </r>
       <r>   -8.3256    1.0000 </r>
       <r>   -8.1402    1.0000 </r>
       <r>   -7.5973    1.0000 </r>
       <r>   -7.5936    1.0000 </r>
       <r>   -7.5391    1.0000 </r>
       <r>   -7.1038    1.0000 </r>
       <r>   -7.0987    1.0000 </r>
       <r>   -7.0847    1.0000 </r>
       <r>   -6.9264    1.0000 </r>
       <r>   -6.9217    1.0000 </r>
       <r>   -6.7799    1.0000 </r>
       <r>   -6.7784    1.0000 </r>
       <r>   -6.7377    1.0000 </r>
       <r>   -6.6768    1.0000 </r>
       <r>   -6.6743    1.0000 </r>
       <r>   -6.6572    1.0000 </r>
       <r>   -6.6253    1.0000 </r>
       <r>   -6.6212    1.0000 </r>
       <r>   -6.2575    1.0000 </r>
       <r>   -6.0716    1.0000 </r>
       <r>   -6.0708    1.0000 </r>
       <r>   -6.0082    1.0000 </r>
       <r>   -5.8087    1.0000 </r>
       <r>   -5.8068    1.0000 </r>
       <r>   -5.5597    1.0000 </r>
       <r>   -5.5278    1.0000 </r>
       <r>   -5.5213    1.0000 </r>
       <r>   -5.0800    1.0000 </r>
       <r>   -5.0633    1.0000 </r>
       <r>   -5.0578    1.0000 </r>
       <r>   -2.9201    0.0000 </r>
       <r>   -2.9194    0.0000 </r>
       <r>   -2.6765    0.0000 </r>
       <r>   -2.5269    0.0000 </r>
       <r>   -2.5221    0.0000 </r>
       <r>   -2.1931    0.0000 </r>
       <r>   -2.1894    0.0000 </r>
       <r>   -2.0577    0.0000 </r>
       <r>   -2.0310    0.0000 </r>
       <r>   -2.0293    0.0000 </r>
       <r>   -1.4422    0.0000 </r>
       <r>   -1.2340    0.0000 </r>
       <r>   -0.6861    0.0000 </r>
       <r>   -0.5714    0.0000 </r>
       <r>   -0.5696    0.0000 </r>
       <r>   -0.4010    0.0000 </r>
       <r>   -0.2636    0.0000 </r>
       <r>   -0.2591    0.0000 </r>
       <r>   -0.1925    0.0000 </r>
       <r>    0.0194    0.0000 </r>
       <r>    0.1291    0.0000 </r>
       <r>    0.1328    0.0000 </r>
       <r>    0.2029    0.0000 </r>
       <r>    0.2076    0.0000 </r>
       <r>    0.2679    0.0000 </r>
       <r>    0.3597    0.0000 </r>
       <r>    0.3613    0.0000 </r>
       <r>    0.4175    0.0000 </r>
       <r>    0.6150    0.0000 </r>
       <r>    0.6252    0.0000 </r>
       <r>    0.6265    0.0000 </r>
       <r>    0.6890    0.0000 </r>
       <r>    0.7059    0.0000 </r>
       <r>    0.7212    0.0000 </r>
       <r>    0.7389    0.0000 </r>
       <r>    0.7457    0.0000 </r>
       <r>    0.7941    0.0000 </r>
       <r>    0.8802    0.0000 </r>
       <r>    0.8856    0.0000 </r>
       <r>    0.9073    0.0000 </r>
       <r>    0.9187    0.0000 </r>
       <r>    0.9482    0.0000 </r>
       <r>    0.9558    0.0000 </r>
       <r>    0.9955    0.0000 </r>
       <r>    1.0555    0.0000 </r>
       <r>    1.0624    0.0000 </r>
       <r>    1.1570    0.0000 </r>
       <r>    1.1645    0.0000 </r>
      </set>
      <set comment="kpoint 4">
       <r>  -26.2438    1.0000 </r>
       <r>  -26.2304    1.0000 </r>
       <r>  -26.2273    1.0000 </r>
       <r>  -26.0067    1.0000 </r>
       <r>  -25.9921    1.0000 </r>
       <r>  -25.9917    1.0000 </r>
       <r>  -25.3411    1.0000 </r>
       <r>  -25.3377    1.0000 </r>
       <r>  -25.3347    1.0000 </r>
       <r>  -23.7850    1.0000 </r>
       <r>  -23.7821    1.0000 </r>
       <r>  -23.7764    1.0000 </r>
       <r>  -23.2294    1.0000 </r>
       <r>  -23.2244    1.0000 </r>
       <r>  -23.2201    1.0000 </r>
       <r>  -22.0000    1.0000 </r>
       <r>  -21.8770    1.0000 </r>
       <r>  -21.7125    1.0000 </r>
       <r>  -21.7117    1.0000 </r>
       <r>  -21.6750    1.0000 </r>
       <r>  -20.3430    1.0000 </r>
       <r>  -20.3388    1.0000 </r>
       <r>  -20.0604    1.0000 </r>
       <r>  -19.6474    1.0000 </r>
       <r>  -19.6423    1.0000 </r>
       <r>  -19.4491    1.0000 </r>
       <r>  -19.2605    1.0000 </r>
       <r>  -19.2591    1.0000 </r>
       <r>  -19.0978    1.0000 </r>
       <r>  -19.0971    1.0000 </r>
       <r>  -18.9271    1.0000 </r>
       <r>  -18.9261    1.0000 </r>
       <r>  -18.9245    1.0000 </r>
       <r>  -17.1838    1.0000 </r>
       <r>  -17.1041    1.0000 </r>
       <r>  -17.0994    1.0000 </r>
       <r>  -16.5833    1.0000 </r>
       <r>  -16.5795    1.0000 </r>
       <r>  -16.5192    1.0000 </r>
       <r>  -16.0171    1.0000 </r>
       <r>  -16.0151    1.0000 </r>
       <r>  -15.8824    1.0000 </r>
       <r>  -15.8819    1.0000 </r>
       <r>  -15.7822    1.0000 </r>
       <r>  -15.5671    1.0000 </r>
       <r>  -15.1650    1.0000 </r>
       <r>  -15.1583    1.0000 </r>
       <r>  -14.8087    1.0000 </r>
       <r>  -14.8037    1.0000 </r>
       <r>  -14.6230    1.0000 </r>
       <r>  -14.3809    1.0000 </r>
       <r>  -14.1494    1.0000 </r>
       <r>  -14.1444    1.0000 </r>
       <r>  -14.0229    1.0000 </r>
       <r>  -13.8543    1.0000 </r>
       <r>  -13.8400    1.0000 </r>
       <r>  -13.3519    1.0000 </r>
       <r>  -13.2881    1.0000 </r>
       <r>  -13.2759    1.0000 </r>
       <r>  -13.2068    1.0000 </r>
       <r>  -13.0018    1.0000 </r>
       <r>  -12.9892    1.0000 </r>
       <r>  -12.9538    1.0000 </r>
       <r>  -12.3452    1.0000 </r>
       <r>  -12.3255    1.0000 </r>
       <r>  -12.3206    1.0000 </r>
       <r>  -12.1379    1.0000 </r>
       <r>  -12.0577    1.0000 </r>
       <r>  -11.6605    1.0000 </r>
       <r>  -11.6534    1.0000 </r>
       <r>  -11.6494    1.0000 </r>
       <r>  -11.4427    1.0000 </r>
       <r>  -11.3899    1.0000 </r>
       <r>  -11.3873    1.0000 </r>
       <r>  -11.2412    1.0000 </r>
       <r>  -11.2399    1.0000 </r>
       <r>  -11.2132    1.0000 </r>
       <r>  -11.0805    1.0000 </r>
       <r>  -11.0238    1.0000 </r>
       <r>  -11.0191    1.0000 </r>
       <r>  -10.9480    1.0000 </r>
       <r>  -10.9465    1.0000 </r>
       <r>  -10.8552    1.0000 </r>
       <r>  -10.6599    1.0000 </r>
       <r>  -10.6227    1.0000 </r>
       <r>  -10.6202    1.0000 </r>
       <r>  -10.4417    1.0000 </r>
       <r>  -10.3677    1.0000 </r>
       <r>  -10.2547    1.0000 </r>
       <r>  -10.2530    1.0000 </r>
       <r>  -10.1343    1.0000 </r>
       <r>  -10.1287    1.0000 </r>
       <r>  -10.0400    1.0000 </r>
       <r>  -10.0364    1.0000 </r>
       <r>  -10.0321    1.0000 </r>
       <r>   -9.9003    1.0000 </r>
       <r>   -9.8997    1.0000 </r>
       <r>   -9.8054    1.0000 </r>
       <r>   -9.2386    1.0000 </r>
       <r>   -9.1691    1.0000 </r>
       <r>   -9.1651    1.0000 </r>
       <r>   -9.1636    1.0000 </r>
       <r>   -9.1240    1.0000 </r>
       <r>   -9.1124    1.0000 </r>
       <r>   -9.1045    1.0000 </r>
       <r>   -9.0214    1.0000 </r>
       <r>   -9.0184    1.0000 </r>
       <r>   -8.9137    1.0000 </r>
       <r>   -8.9101    1.0000 </r>
       <r>   -8.8544    1.0000 </r>
       <r>   -8.6281    1.0000 </r>
       <r>   -8.6144    1.0000 </r>
       <r>   -8.6125    1.0000 </r>
       <r>   -8.3317    1.0000 </r>
       <r>   -8.3245    1.0000 </r>
       <r>   -8.1414    1.0000 </r>
       <r>   -7.5972    1.0000 </r>
       <r>   -7.5935    1.0000 </r>
       <r>   -7.5392    1.0000 </r>
       <r>   -7.1037    1.0000 </r>
       <r>   -7.0987    1.0000 </r>
       <r>   -7.0848    1.0000 </r>
       <r>   -6.9264    1.0000 </r>
       <r>   -6.9217    1.0000 </r>
       <r>   -6.7800    1.0000 </r>
       <r>   -6.7785    1.0000 </r>
       <r>   -6.7374    1.0000 </r>
[...]
       <r>   -26.0060    11.3052     7.1373 </r>
       <r>   -25.9054     0.0000    12.0000 </r>
       <r>   -25.8048     0.0000    12.0000 </r>
       <r>   -25.7042     0.0000    12.0000 </r>
       <r>   -25.6036     0.0000    12.0000 </r>
       <r>   -25.5030     0.0000    12.0000 </r>
       <r>   -25.4024     0.0000    12.0000 </r>
       <r>   -25.3018    59.6401    18.0000 </r>
       <r>   -25.2012     0.0000    18.0000 </r>
       <r>   -25.1006     0.0000    18.0000 </r>
       <r>   -25.0000     0.0000    18.0000 </r>
       <r>   -24.8994     0.0000    18.0000 </r>
       <r>   -24.7988     0.0000    18.0000 </r>
       <r>   -24.6982     0.0000    18.0000 </r>
       <r>   -24.5976     0.0000    18.0000 </r>
       <r>   -24.4970     0.0000    18.0000 </r>
       <r>   -24.3964     0.0000    18.0000 </r>
       <r>   -24.2958     0.0000    18.0000 </r>
       <r>   -24.1952     0.0000    18.0000 </r>
       <r>   -24.0946     0.0000    18.0000 </r>
       <r>   -23.9940     0.0000    18.0000 </r>
       <r>   -23.8933     0.0000    18.0000 </r>
       <r>   -23.7927     4.0496    18.4074 </r>
       <r>   -23.6921     0.0000    24.0000 </r>
       <r>   -23.5915     0.0000    24.0000 </r>
       <r>   -23.4909     0.0000    24.0000 </r>
       <r>   -23.3903     0.0000    24.0000 </r>
       <r>   -23.2897     0.0000    24.0000 </r>
       <r>   -23.1891    59.6400    30.0000 </r>
       <r>   -23.0885     0.0000    30.0000 </r>
       <r>   -22.9879     0.0000    30.0000 </r>
       <r>   -22.8873     0.0000    30.0000 </r>
       <r>   -22.7867     0.0000    30.0000 </r>
       <r>   -22.6861     0.0000    30.0000 </r>
       <r>   -22.5855     0.0000    30.0000 </r>
       <r>   -22.4849     0.0000    30.0000 </r>
       <r>   -22.3843     0.0000    30.0000 </r>
       <r>   -22.2837     0.0000    30.0000 </r>
       <r>   -22.1831     0.0000    30.0000 </r>
       <r>   -22.0825     0.0000    30.0000 </r>
       <r>   -21.9819    19.7096    31.9829 </r>
       <r>   -21.8813     5.8061    32.5841 </r>
       <r>   -21.7807     0.0000    34.0000 </r>
       <r>   -21.6801    52.7697    39.3088 </r>
       <r>   -21.5795     0.0000    40.0000 </r>
       <r>   -21.4789     0.0000    40.0000 </r>
       <r>   -21.3783     0.0000    40.0000 </r>
       <r>   -21.2777     0.0000    40.0000 </r>
       <r>   -21.1771     0.0000    40.0000 </r>
       <r>   -21.0765     0.0000    40.0000 </r>
       <r>   -20.9758     0.0000    40.0000 </r>
       <r>   -20.8752     0.0000    40.0000 </r>
       <r>   -20.7746     0.0000    40.0000 </r>
       <r>   -20.6740     0.0000    40.0000 </r>
       <r>   -20.5734     0.0000    40.0000 </r>
       <r>   -20.4728     0.0000    40.0000 </r>
       <r>   -20.3722     0.0003    40.0000 </r>
       <r>   -20.2716    30.7716    43.0958 </r>
       <r>   -20.1710    12.2070    44.8614 </r>
       <r>   -20.0704     5.9758    45.6679 </r>
       <r>   -19.9698     0.0000    46.0000 </r>
       <r>   -19.8692     0.0000    46.0000 </r>
       <r>   -19.7686     0.0000    46.0000 </r>
       <r>   -19.6680     0.0390    46.0039 </r>
       <r>   -19.5674    12.9463    48.9034 </r>
       <r>   -19.4668    19.7873    51.2575 </r>
       <r>   -19.3662     0.0000    52.0000 </r>
       <r>   -19.2656     5.4680    52.5501 </r>
       <r>   -19.1650     4.9640    56.0000 </r>
       <r>   -19.0644    39.7600    60.0000 </r>
       <r>   -18.9638     0.0000    60.0000 </r>
       <r>   -18.8632    59.6401    66.0000 </r>
       <r>   -18.7626     0.0000    66.0000 </r>
       <r>   -18.6620     0.0000    66.0000 </r>
       <r>   -18.5614     0.0000    66.0000 </r>
       <r>   -18.4608     0.0000    66.0000 </r>
       <r>   -18.3602     0.0000    66.0000 </r>
       <r>   -18.2596     0.0000    66.0000 </r>
       <r>   -18.1590     0.0000    66.0000 </r>
       <r>   -18.0584     0.0000    66.0000 </r>
       <r>   -17.9577     0.0000    66.0000 </r>
       <r>   -17.8571     0.0000    66.0000 </r>
       <r>   -17.7565     0.0000    66.0000 </r>
       <r>   -17.6559     0.0000    66.0000 </r>
       <r>   -17.5553     0.0000    66.0000 </r>
       <r>   -17.4547     0.0000    66.0000 </r>
       <r>   -17.3541     0.0000    66.0000 </r>
       <r>   -17.2535     0.0000    66.0000 </r>
       <r>   -17.1529    15.8321    67.5928 </r>
       <r>   -17.0523    39.7593    72.0000 </r>
       <r>   -16.9517     0.0000    72.0000 </r>
       <r>   -16.8511     0.0000    72.0000 </r>
       <r>   -16.7505     0.0000    72.0000 </r>
       <r>   -16.6499     0.0000    72.0000 </r>
       <r>   -16.5493    40.4444    76.0688 </r>
       <r>   -16.4487     6.9569    78.0000 </r>
       <r>   -16.3481     0.0000    78.0000 </r>
       <r>   -16.2475     0.0000    78.0000 </r>
       <r>   -16.1469     0.0000    78.0000 </r>
       <r>   -16.0463     0.0004    78.0000 </r>
       <r>   -15.9457    39.7597    82.0000 </r>
       <r>   -15.8451    39.7601    86.0000 </r>
       <r>   -15.7445    19.8796    88.0000 </r>
       <r>   -15.6439     0.0578    88.0058 </r>
       <r>   -15.5433    13.5774    89.9996 </r>
       <r>   -15.4427     0.0000    90.0000 </r>
       <r>   -15.3421     0.0000    90.0000 </r>
       <r>   -15.2415     0.0000    90.0000 </r>
       <r>   -15.1409    23.8933    92.4038 </r>
       <r>   -15.0402    11.7688    93.7507 </r>
       <r>   -14.9396     0.0000    94.0000 </r>
       <r>   -14.8390    12.6351    95.2711 </r>
       <r>   -14.7384    24.1869    98.0000 </r>
       <r>   -14.6378     0.0780    98.0078 </r>
       <r>   -14.5372    15.2401   100.0000 </r>
       <r>   -14.4366     0.0000   100.0000 </r>
       <r>   -14.3360    19.8800   102.0000 </r>
       <r>   -14.2354     0.0000   102.0000 </r>
       <r>   -14.1348    42.4512   106.2707 </r>
       <r>   -14.0342     5.9874   107.7024 </r>
       <r>   -13.9336     1.3247   108.0000 </r>
       <r>   -13.8330    22.1466   110.2280 </r>
       <r>   -13.7324     3.2879   110.6974 </r>
       <r>   -13.6318     6.3707   111.4409 </r>
       <r>   -13.5312     7.8937   112.4608 </r>
       <r>   -13.4306     4.3961   113.3423 </r>
       <r>   -13.3300     5.3877   113.9754 </r>
       <r>   -13.2294    26.6264   116.6787 </r>
       <r>   -13.1288    28.8179   120.0000 </r>
       <r>   -13.0282     0.0009   120.0001 </r>
       <r>   -12.9276    59.6388   126.0000 </r>
       <r>   -12.8270     0.0000   126.0000 </r>
       <r>   -12.7264     0.0000   126.0000 </r>
       <r>   -12.6258     0.0000   126.0000 </r>
       <r>   -12.5252     0.0000   126.0000 </r>
       <r>   -12.4246     0.0000   126.0000 </r>
       <r>   -12.3240    33.6735   129.3877 </r>
       <r>   -12.2234    14.5779   132.0000 </r>
       <r>   -12.1227    19.8017   133.9921 </r>
       <r>   -12.0221    19.8800   136.0000 </r>
       <r>   -11.9215     0.0000   136.0000 </r>
       <r>   -11.8209     0.0000   136.0000 </r>
       <r>   -11.7203     0.0000   136.0000 </r>
       <r>   -11.6197    59.6395   141.9999 </r>
       <r>   -11.5191     0.0000   142.0000 </r>
       <r>   -11.4185    19.8792   143.9999 </r>
       <r>   -11.3179    39.7570   148.0000 </r>
       <r>   -11.2173    50.1460   153.0449 </r>
       <r>   -11.1167     0.0000   154.0000 </r>
       <r>   -11.0161    52.7150   159.3033 </r>
       <r>   -10.9155    39.7584   163.9998 </r>
       <r>   -10.8149    19.8800   166.0000 </r>
       <r>   -10.7143     0.0000   166.0000 </r>
       <r>   -10.6137    52.7574   171.3076 </r>
       <r>   -10.5131     0.0000   172.0000 </r>
       <r>   -10.4125    19.8797   174.0000 </r>
       <r>   -10.3119    19.8800   176.0000 </r>
       <r>   -10.2113    39.7601   180.0000 </r>
       <r>   -10.1107    27.1419   182.7306 </r>
       <r>   -10.0101    64.4392   189.9831 </r>
       <r>    -9.9095    17.2065   191.7310 </r>
       <r>    -9.8089     3.3573   194.3378 </r>
       <r>    -9.7083     0.0000   196.0000 </r>
       <r>    -9.6077     0.0000   196.0000 </r>
       <r>    -9.5071     0.0000   196.0000 </r>
       <r>    -9.4065     0.0000   196.0000 </r>
       <r>    -9.3059     0.0000   196.0000 </r>
       <r>    -9.2053    19.8693   197.9989 </r>
       <r>    -9.1046    98.7840   207.9380 </r>
       <r>    -9.0040    51.4498   213.6761 </r>
       <r>    -8.9034    47.4198   218.7706 </r>
       <r>    -8.8028     5.9637   220.0000 </r>
       <r>    -8.7022     0.0000   220.0000 </r>
       <r>    -8.6016    58.2288   225.8580 </r>
       <r>    -8.5010     0.0000   226.0000 </r>
       <r>    -8.4004     0.0000   226.0000 </r>
       <r>    -8.2998    26.1059   228.6263 </r>
       <r>    -8.1992    17.0344   230.5471 </r>
       <r>    -8.0986     8.6146   232.0000 </r>
       <r>    -7.9980     0.0000   232.0000 </r>
       <r>    -7.8974     0.0000   232.0000 </r>
       <r>    -7.7968     0.0000   232.0000 </r>
       <r>    -7.6962     0.0000   232.0000 </r>
       <r>    -7.5956    15.0841   233.5175 </r>
       <r>    -7.4950    19.8800   238.0000 </r>
       <r>    -7.3944     0.0000   238.0000 </r>
       <r>    -7.2938     0.0000   238.0000 </r>
       <r>    -7.1932     0.0000   238.0000 </r>
       <r>    -7.0926    37.6382   241.7865 </r>
       <r>    -6.9920     0.0000   244.0000 </r>
       <r>    -6.8914    39.7599   248.0000 </r>
       <r>    -6.7908     3.4722   248.3493 </r>
       <r>    -6.6902    21.0954   254.1223 </r>
       <r>    -6.5896    59.6399   264.0000 </r>
       <r>    -6.4890     0.0000   264.0000 </r>
       <r>    -6.3884     0.0000   264.0000 </r>
       <r>    -6.2878     0.0002   264.0000 </r>
       <r>    -6.1871    19.8799   266.0000 </r>
       <r>    -6.0865     1.8280   266.1839 </r>
       <r>    -5.9859    19.7179   271.9837 </r>
       <r>    -5.8853     0.0000   272.0000 </r>
       <r>    -5.7847    39.7283   275.9968 </r>
       <r>    -5.6841     0.0000   276.0000 </r>
       <r>    -5.5835     0.0019   276.0002 </r>
       <r>    -5.4829    59.6383   282.0000 </r>
       <r>    -5.3823     0.0000   282.0000 </r>
       <r>    -5.2817     0.0000   282.0000 </r>
       <r>    -5.1811     0.0000   282.0000 </r>
       <r>    -5.0805     9.3143   282.9370 </r>
       <r>    -4.9799    19.8662   288.0000 </r>
       <r>    -4.8793     0.0000   288.0000 </r>
       <r>    -4.7787     0.0000   288.0000 </r>
       <r>    -4.6781     0.0000   288.0000 </r>
       <r>    -4.5775     0.0000   288.0000 </r>
       <r>    -4.4769     0.0000   288.0000 </r>
       <r>    -4.3763     0.0000   288.0000 </r>
       <r>    -4.2757     0.0000   288.0000 </r>
       <r>    -4.1751     0.0000   288.0000 </r>
       <r>    -4.0745     0.0000   288.0000 </r>
       <r>    -3.9739     0.0000   288.0000 </r>
       <r>    -3.8733     0.0000   288.0000 </r>
       <r>    -3.7727     0.0000   288.0000 </r>
       <r>    -3.6721     0.0000   288.0000 </r>
       <r>    -3.5715     0.0000   288.0000 </r>
       <r>    -3.4709     0.0000   288.0000 </r>
       <r>    -3.3703     0.0000   288.0000 </r>
       <r>    -3.2697     0.0000   288.0000 </r>
       <r>    -3.1690     0.0000   288.0000 </r>
       <r>    -3.0684     0.0000   288.0000 </r>
       <r>    -2.9678     0.0000   288.0000 </r>
       <r>    -2.8672    39.7160   291.9956 </r>
       <r>    -2.7666     8.6724   292.8725 </r>
       <r>    -2.6660     7.7025   293.9749 </r>
       <r>    -2.5654     0.0000   294.0000 </r>
       <r>    -2.4648    25.6314   296.5786 </r>
       <r>    -2.3642     9.0497   297.6104 </r>
       <r>    -2.2636    10.1425   299.0204 </r>
       <r>    -2.1630    27.8307   301.9999 </r>
       <r>    -2.0624     1.7893   302.1800 </r>
       <r>    -1.9618    39.7599   308.0000 </r>
       <r>    -1.8612     0.0000   308.0000 </r>
       <r>    -1.7606     0.0000   308.0000 </r>
       <r>    -1.6600     0.0000   308.0000 </r>
       <r>    -1.5594     0.0000   308.0000 </r>
       <r>    -1.4588     0.2036   308.0205 </r>
       <r>    -1.3582     0.0000   310.0000 </r>
       <r>    -1.2576     0.1017   310.0102 </r>
       <r>    -1.1570     5.9595   312.0000 </r>
       <r>    -1.0564     0.0000   312.0000 </r>
       <r>    -0.9558     0.0000   312.0000 </r>
       <r>    -0.8552     0.0000   312.0000 </r>
       <r>    -0.7546     0.0000   312.0000 </r>
       <r>    -0.6540    19.8759   313.9996 </r>
       <r>    -0.5534    23.7659   316.3909 </r>
       <r>    -0.4528    17.5443   318.3650 </r>
       <r>    -0.3522    12.4131   320.4156 </r>
       <r>    -0.2515    26.2247   323.5383 </r>
       <r>    -0.1509    19.1345   325.9250 </r>
       <r>    -0.0503     0.0000   326.0000 </r>
       <r>     0.0503    19.8768   327.9997 </r>
       <r>     0.1509    39.3154   331.9553 </r>
       <r>     0.2515    37.8477   335.8078 </r>
       <r>     0.3521    16.0002   338.0098 </r>
       <r>     0.4527    34.1267   342.8001 </r>
       <r>     0.5533    18.6371   345.2084 </r>
       <r>     0.6539    41.0991   350.4348 </r>
       <r>     0.7545    75.1398   359.2596 </r>
       <r>     0.8551    52.4117   365.2733 </r>
       <r>     0.9557    60.1151   371.9146 </r>
       <r>     1.0563    28.8140   375.5991 </r>
       <r>     1.1569    41.0990   381.3017 </r>
       <r>     1.2575     5.6313   384.0000 </r>
       <r>     1.3581     0.0000   384.0000 </r>
       <r>     1.4587     0.0000   384.0000 </r>
       <r>     1.5593     0.0000   384.0000 </r>
       <r>     1.6599     0.0000   384.0000 </r>
       <r>     1.7605     0.0000   384.0000 </r>
       <r>     1.8611     0.0000   384.0000 </r>
       <r>     1.9617     0.0000   384.0000 </r>
       <r>     2.0623     0.0000   384.0000 </r>
       <r>     2.1629     0.0000   384.0000 </r>
       <r>     2.2635     0.0000   384.0000 </r>
       <r>     2.3641     0.0000   384.0000 </r>
       <r>     2.4647     0.0000   384.0000 </r>
       <r>     2.5653     0.0000   384.0000 </r>
      </set>
     </set>
    </array>
   </total>
  </dos>
 </calculation>
 <structure name="finalpos" >
  <crystal>
   <varray name="basis" >
    <v>      22.29816113       0.00850179       0.00000000 </v>
    <v>     -11.14148596      19.24431595       0.00000000 </v>
    <v>       0.00000000       0.00000000      20.00000000 </v>
   </varray>
   <i name="volume">   8584.15161224 </i>
   <varray name="rec_basis" >
    <v>       0.04483685       0.02595827       0.00000000 </v>
    <v>      -0.00001981       0.05195193       0.00000000 </v>
    <v>       0.00000000       0.00000000       0.05000000 </v>
   </varray>
  </crystal>
  <varray name="positions" >
   <v>       0.57545593       0.14033655       0.49404931 </v>
   <v>       0.86276053       0.42658960       0.49348576 </v>
   <v>       0.57752630       0.42871348       0.49205336 </v>
   <v>       0.55705074       0.03673363       0.54088174 </v>
   <v>       0.52574596       0.96681255       0.54149842 </v>
   <v>       0.45300642       0.85755378       0.50129329 </v>
   <v>       0.96597510       0.51178430       0.54041202 </v>
   <v>       0.03567380       0.55034226       0.54114983 </v>
   <v>       0.14469374       0.58642252       0.50148941 </v>
   <v>       0.49287675       0.44698144       0.53952519 </v>
   <v>       0.45372523       0.47749359       0.54022128 </v>
   <v>       0.41543925       0.54854682       0.49961772 </v>
   <v>       0.34073893       0.82829397       0.47639841 </v>
   <v>       0.17332888       0.50256458       0.47804133 </v>
   <v>       0.49767893       0.66077715       0.47251767 </v>
   <v>       0.68602617       0.17437409       0.53162950 </v>
   <v>       0.82926220       0.50397082       0.53035448 </v>
   <v>       0.50024746       0.31741925       0.52809596 </v>
   <v>       0.26616106       0.61661832       0.50241594 </v>
   <v>       0.31370987       0.59276900       0.50169265 </v>
   <v>       0.38486255       0.63981699       0.50085486 </v>
   <v>       0.40871180       0.71139005       0.50107004 </v>
   <v>       0.29047323       0.68796406       0.50258190 </v>
   <v>       0.19117851       0.56276497       0.49411687 </v>
   <v>       0.43838468       0.61858969       0.49085498 </v>
   <v>       0.74164004       0.38472593       0.51700517 </v>
   <v>       0.68883822       0.40148729       0.51678892 </v>
   <v>       0.61931893       0.34918010       0.51611764 </v>
   <v>       0.60257537       0.27943764       0.51701332 </v>
   <v>       0.72423543       0.31502658       0.51795609 </v>
   <v>       0.81492445       0.44466677       0.51575665 </v>
   <v>       0.55952359       0.36259074       0.51410184 </v>
   <v>       0.47438391       0.95912698       0.43224944 </v>
   <v>       0.50793904       0.03294631       0.43115258 </v>
   <v>       0.54670883       0.06813413       0.48974488 </v>
   <v>       0.50427967       0.06698541       0.37277257 </v>
   <v>       0.46849753       0.02870078       0.31736320 </v>
   <v>       0.43618730       0.95552291       0.31815729 </v>
   <v>       0.43915658       0.92113905       0.37446136 </v>
   <v>       0.04361980       0.50605890       0.43227923 </v>
   <v>       0.96999487       0.46607819       0.43088055 </v>
   <v>       0.93477375       0.46991034       0.48927632 </v>
   <v>       0.93619189       0.42837504       0.37242158 </v>
   <v>       0.97453807       0.43051357       0.31727062 </v>
   <v>       0.04754413       0.47104936       0.31839896 </v>
   <v>       0.08169097       0.50844929       0.37475227 </v>
   <v>       0.49486981       0.52708832       0.42983793 </v>
   <v>       0.53585115       0.49446922       0.42876817 </v>
   <v>       0.53373134       0.45692684       0.48778055 </v>
   <v>       0.57284683       0.49777004       0.37003187 </v>
   <v>       0.56895629       0.53230293       0.31424953 </v>
   <v>       0.52728655       0.56357923       0.31499475 </v>
   <v>       0.49060305       0.56093025       0.37162540 </v>
   <v>       0.36184130       0.73568062       0.50193037 </v>
   <v>       0.38298554       0.81075049       0.49323515 </v>
   <v>       0.65467317       0.26200460       0.51731502 </v>
   <v>       0.64120974       0.18852819       0.51651882 </v>
   <v>       0.48387380       0.92973871       0.49217529 </v>
   <v>       0.07274988       0.54516639       0.49214799 </v>
   <v>       0.45702059       0.51816381       0.49029026 </v>
   <v>       0.46447551       0.74620645       0.49640165 </v>
   <v>       0.25584323       0.70922560       0.49911717 </v>
   <v>       0.29251333       0.53679372       0.49762132 </v>
   <v>       0.54752561       0.24059026       0.51930479 </v>
   <v>       0.76300068       0.29881021       0.52104494 </v>
   <v>       0.70512495       0.45666959       0.51896793 </v>
   <v>       0.53114694       0.12357833       0.37074361 </v>
   <v>       0.46605491       0.05512366       0.27238298 </v>
   <v>       0.40897376       0.92593295       0.27377403 </v>
   <v>       0.41436975       0.86479707       0.37437004 </v>
   <v>       0.54712332       0.15968012       0.47330479 </v>
   <v>       0.87975255       0.39897827       0.37012359 </v>
   <v>       0.94833145       0.40164328       0.27222617 </v>
   <v>       0.07717929       0.47315667       0.27420110 </v>
   <v>       0.13789605       0.53980223       0.37487517 </v>
   <v>       0.84330627       0.37868438       0.47297853 </v>
   <v>       0.60310312       0.47158461       0.36813109 </v>
   <v>       0.59730550       0.53453679       0.26900122 </v>
   <v>       0.52375603       0.58970450       0.27028498 </v>
   <v>       0.45844365       0.58491194       0.37150083 </v>
   <v>       0.62535519       0.45750536       0.47174906 </v>
   <v>       0.48004934       0.84424964       0.53322541 </v>
   <v>       0.15794598       0.62719740       0.53295204 </v>
   <v>       0.37600318       0.52181454       0.53257517 </v>
  </varray>
 </structure>
</modeling>
