<?xml version="1.0" encoding="ISO-8859-1"?>
<modeling>
 <generator>
  <i name="program" type="string">vasp </i>
  <i name="version" type="string">5.4.4.18Apr17-6-g9f103f2a35  </i>
  <i name="subversion" type="string">(build Jun 07 2020 16:50:00) complex            parallel </i>
  <i name="platform" type="string">LinuxIFC </i>
  <i name="date" type="string">2023 02 16 </i>
  <i name="time" type="string">15:13:56 </i>
 </generator>
 <incar>
  <i type="string" name="SYSTEM">Simulation for cell shape cell volume r</i>
  <i type="int" name="ISTART">     1</i>
  <i type="string" name="PREC">high</i>
  <i type="string" name="ALGO">48</i>
  <i type="int" name="ICHARG">    11</i>
  <i type="int" name="NELM">   200</i>
  <i type="int" name="IBRION">    -1</i>
  <i name="EDIFF">      0.00001000</i>
  <i name="EDIFFG">     -0.01000000</i>
  <i type="int" name="NSW">     0</i>
  <i type="int" name="ISIF">     2</i>
  <i name="ENCUT">    500.00000000</i>
  <i name="POTIM">      0.30000000</i>
  <i type="string" name="LREAL">A</i>
  <i type="int" name="ISMEAR">     0</i>
  <i name="SIGMA">      0.01000000</i>
  <i type="int" name="NWRITE">     0</i>
  <i type="logical" name="LWAVE"> F  </i>
  <i type="logical" name="LCHARG"> F  </i>
  <v type="int" name="KPOINT_BSE">    -1     0     0     0</v>
  <i type="int" name="NELM">   200</i>
  <i type="string" name="GGA">PE</i>
 </incar>
 <structure name="primitive_cell" >
  <crystal>
   <varray name="basis" >
    <v>      29.51437148       0.00000000       0.00000000 </v>
    <v>     -14.75718574      25.56019548       0.00000000 </v>
    <v>       0.00000000       0.00000000      20.00000000 </v>
   </varray>
   <i name="volume">  15087.86208519 </i>
   <varray name="rec_basis" >
    <v>       0.03388180       0.01956167       0.00000000 </v>
    <v>       0.00000000       0.03912333       0.00000000 </v>
    <v>       0.00000000       0.00000000       0.05000000 </v>
   </varray>
  </crystal>
  <varray name="positions" >
   <v>       0.01956101      -0.49021950      -0.30585281 </v>
   <v>      -0.03066652       0.48466674      -0.31394002 </v>
   <v>       0.05245963      -0.47377018      -0.36251738 </v>
   <v>      -0.05639819       0.47180091      -0.27008991 </v>
   <v>       0.10025520      -0.44987240      -0.35553972 </v>
   <v>      -0.05607852       0.47196074      -0.37384271 </v>
   <v>       0.02691925      -0.48654037      -0.42985696 </v>
   <v>      -0.02836506       0.48581747      -0.43352100 </v>
   <v>      -0.09582091       0.45208954      -0.37556167 </v>
   <v>       0.05584015      -0.47207992      -0.49026147 </v>
   <v>      -0.05544193       0.47227903      -0.49503333 </v>
   <v>       0.11413741      -0.44293130      -0.49232676 </v>
   <v>       0.02888060      -0.48555970       0.44892325 </v>
   <v>       0.12050475      -0.36679316      -0.49337399 </v>
   <v>       0.12050475       0.48729790      -0.49337399 </v>
   <v>       0.14183812      -0.38811476      -0.49533354 </v>
   <v>       0.14183812      -0.47004712      -0.49533354 </v>
   <v>      -0.02583980       0.48708010       0.44653026 </v>
   <v>      -0.11366434       0.44316783      -0.49629707 </v>
   <v>      -0.12022173      -0.48715637      -0.49632595 </v>
   <v>      -0.12022173       0.36693464      -0.49632595 </v>
   <v>      -0.14167363       0.47015017      -0.49644302 </v>
   <v>      -0.14167363       0.38817621      -0.49644302 </v>
   <v>       0.05128528      -0.47435736       0.40251838 </v>
   <v>       0.19616329      -0.36092339      -0.49914496 </v>
   <v>       0.19616329      -0.44291332      -0.49914496 </v>
   <v>      -0.04590399       0.47704801       0.39837620 </v>
   <v>       0.22404879      -0.38797560       0.49942981 </v>
   <v>       0.21791555      -0.31832091       0.49953782 </v>
   <v>       0.21791555      -0.46376354       0.49953782 </v>
   <v>      -0.19615033       0.44295673      -0.49713470 </v>
   <v>      -0.19615033       0.36089294      -0.49713470 </v>
   <v>      -0.22400208       0.38799896      -0.49740842 </v>
   <v>      -0.21789543       0.46382138      -0.49751600 </v>
   <v>      -0.21789543       0.31828319      -0.49751600 </v>
   <v>       0.28190677      -0.35904661       0.49782148 </v>
   <v>       0.30645472      -0.38709056       0.49767793 </v>
   <v>       0.30645472      -0.30645472       0.49767793 </v>
   <v>      -0.28192775       0.35903613      -0.49778773 </v>
   <v>      -0.30645823       0.38708354      -0.49779479 </v>
   <v>      -0.30645823       0.30645823      -0.49779479 </v>
   <v>       0.31832091      -0.21791555       0.49953782 </v>
   <v>       0.31832091      -0.46376354       0.49953782 </v>
   <v>       0.35904661      -0.28190677       0.49782148 </v>
   <v>       0.35904661      -0.35904661       0.49782148 </v>
   <v>      -0.31828319       0.46382138      -0.49751600 </v>
   <v>      -0.31828319       0.21789543      -0.49751600 </v>
   <v>       0.38709056      -0.30645472       0.49767793 </v>
   <v>       0.36092339      -0.19616329      -0.49914496 </v>
   <v>       0.36092339      -0.44291332      -0.49914496 </v>
   <v>      -0.35903613       0.35903613      -0.49778773 </v>
   <v>      -0.35903613       0.28192775      -0.49778773 </v>
   <v>       0.38797560      -0.22404879       0.49942981 </v>
   <v>       0.38797560      -0.38797560       0.49942981 </v>
   <v>      -0.36089294       0.44295673      -0.49713470 </v>
   <v>      -0.36089294       0.19615033      -0.49713470 </v>
   <v>      -0.38708354       0.30645823      -0.49779479 </v>
   <v>       0.36679316      -0.12050475      -0.49337399 </v>
   <v>       0.36679316       0.48729790      -0.49337399 </v>
   <v>       0.38811476      -0.14183812      -0.49533354 </v>
   <v>       0.38811476      -0.47004712      -0.49533354 </v>
   <v>      -0.38799896       0.38799896      -0.49740842 </v>
   <v>      -0.38799896       0.22400208      -0.49740842 </v>
   <v>       0.44291332      -0.19616329      -0.49914496 </v>
   <v>       0.44291332      -0.36092339      -0.49914496 </v>
   <v>      -0.36693464      -0.48715637      -0.49632595 </v>
   <v>      -0.36693464       0.12022173      -0.49632595 </v>
   <v>       0.46376354      -0.21791555       0.49953782 </v>
   <v>       0.46376354      -0.31832091       0.49953782 </v>
   <v>      -0.38817621       0.47015017      -0.49644302 </v>
   <v>      -0.38817621       0.14167363      -0.49644302 </v>
   <v>       0.44987240      -0.10025520      -0.35553972 </v>
   <v>       0.44987240      -0.44987240      -0.35553972 </v>
   <v>       0.44293130      -0.11413741      -0.49232676 </v>
   <v>       0.44293130      -0.44293130      -0.49232676 </v>
   <v>       0.47004712      -0.14183812      -0.49533354 </v>
   <v>       0.47004712      -0.38811476      -0.49533354 </v>
   <v>      -0.44295673       0.36089294      -0.49713470 </v>
   <v>      -0.44295673       0.19615033      -0.49713470 </v>
   <v>      -0.46382138       0.31828319      -0.49751600 </v>
   <v>      -0.46382138       0.21789543      -0.49751600 </v>
   <v>       0.47377018      -0.05245963      -0.36251738 </v>
   <v>       0.47377018      -0.47377018      -0.36251738 </v>
   <v>      -0.45208954       0.45208954      -0.37556167 </v>
   <v>      -0.45208954       0.09582091      -0.37556167 </v>
   <v>      -0.44316783       0.44316783      -0.49629707 </v>
   <v>      -0.44316783       0.11366434      -0.49629707 </v>
   <v>      -0.47015017       0.38817621      -0.49644302 </v>
   <v>      -0.47015017       0.14167363      -0.49644302 </v>
   <v>       0.47207992      -0.05584015      -0.49026147 </v>
   <v>       0.47207992      -0.47207992      -0.49026147 </v>
   <v>      -0.48729790      -0.12050475      -0.49337399 </v>
   <v>      -0.48729790      -0.36679316      -0.49337399 </v>
   <v>       0.49021950      -0.01956101      -0.30585281 </v>
   <v>       0.49021950      -0.49021950      -0.30585281 </v>
   <v>       0.48654037      -0.02691925      -0.42985696 </v>
   <v>       0.48654037      -0.48654037      -0.42985696 </v>
   <v>      -0.47180091       0.47180091      -0.27008991 </v>
   <v>      -0.47180091       0.05639819      -0.27008991 </v>
   <v>      -0.47196074       0.47196074      -0.37384271 </v>
   <v>      -0.47196074       0.05607852      -0.37384271 </v>
   <v>       0.47435736      -0.05128528       0.40251838 </v>
   <v>       0.47435736      -0.47435736       0.40251838 </v>
   <v>      -0.47227903       0.47227903      -0.49503333 </v>
   <v>      -0.47227903       0.05544193      -0.49503333 </v>
   <v>      -0.48466674       0.48466674      -0.31394002 </v>
   <v>      -0.48466674       0.03066652      -0.31394002 </v>
   <v>       0.48555970      -0.02888060       0.44892325 </v>
   <v>       0.48555970      -0.48555970       0.44892325 </v>
   <v>       0.48715637       0.36693464      -0.49632595 </v>
   <v>       0.48715637       0.12022173      -0.49632595 </v>
   <v>      -0.48581747       0.02836506      -0.43352100 </v>
   <v>      -0.48581747       0.48581747      -0.43352100 </v>
   <v>      -0.47704801       0.47704801       0.39837620 </v>
   <v>      -0.47704801       0.04590399       0.39837620 </v>
   <v>      -0.48708010       0.48708010       0.44653026 </v>
   <v>      -0.48708010       0.02583980       0.44653026 </v>
  </varray>
 </structure>
 <varray name="primitive_index" >
  <v type="int" >        1 </v>
  <v type="int" >       76 </v>
  <v type="int" >       18 </v>
  <v type="int" >      111 </v>
  <v type="int" >       15 </v>
  <v type="int" >       12 </v>
  <v type="int" >       16 </v>
  <v type="int" >       74 </v>
  <v type="int" >      112 </v>
  <v type="int" >       75 </v>
  <v type="int" >       73 </v>
  <v type="int" >       37 </v>
  <v type="int" >       17 </v>
  <v type="int" >       88 </v>
  <v type="int" >       90 </v>
  <v type="int" >       36 </v>
  <v type="int" >       38 </v>
  <v type="int" >       81 </v>
  <v type="int" >       58 </v>
  <v type="int" >      102 </v>
  <v type="int" >      100 </v>
  <v type="int" >       59 </v>
  <v type="int" >       57 </v>
  <v type="int" >       82 </v>
  <v type="int" >       35 </v>
  <v type="int" >       39 </v>
  <v type="int" >      117 </v>
  <v type="int" >       34 </v>
  <v type="int" >       87 </v>
  <v type="int" >       89 </v>
  <v type="int" >       60 </v>
  <v type="int" >       56 </v>
  <v type="int" >       55 </v>
  <v type="int" >      101 </v>
  <v type="int" >       99 </v>
  <v type="int" >       21 </v>
  <v type="int" >        3 </v>
  <v type="int" >        4 </v>
  <v type="int" >       42 </v>
  <v type="int" >        6 </v>
  <v type="int" >        7 </v>
  <v type="int" >       86 </v>
  <v type="int" >       91 </v>
  <v type="int" >       19 </v>
  <v type="int" >       20 </v>
  <v type="int" >      103 </v>
  <v type="int" >       98 </v>
  <v type="int" >        2 </v>
  <v type="int" >       33 </v>
  <v type="int" >       27 </v>
  <v type="int" >       41 </v>
  <v type="int" >       40 </v>
  <v type="int" >       28 </v>
  <v type="int" >       22 </v>
  <v type="int" >       48 </v>
  <v type="int" >       54 </v>
  <v type="int" >        5 </v>
  <v type="int" >       85 </v>
  <v type="int" >       92 </v>
  <v type="int" >       32 </v>
  <v type="int" >       26 </v>
  <v type="int" >       43 </v>
  <v type="int" >       49 </v>
  <v type="int" >       29 </v>
  <v type="int" >       23 </v>
  <v type="int" >      104 </v>
  <v type="int" >       97 </v>
  <v type="int" >       84 </v>
  <v type="int" >       94 </v>
  <v type="int" >       47 </v>
  <v type="int" >       53 </v>
  <v type="int" >       14 </v>
  <v type="int" >       13 </v>
  <v type="int" >       31 </v>
  <v type="int" >       25 </v>
  <v type="int" >       30 </v>
  <v type="int" >       24 </v>
  <v type="int" >       44 </v>
  <v type="int" >       50 </v>
  <v type="int" >      106 </v>
  <v type="int" >       96 </v>
  <v type="int" >       71 </v>
  <v type="int" >       65 </v>
  <v type="int" >      108 </v>
  <v type="int" >      110 </v>
  <v type="int" >       46 </v>
  <v type="int" >       52 </v>
  <v type="int" >       45 </v>
  <v type="int" >       51 </v>
  <v type="int" >       70 </v>
  <v type="int" >       64 </v>
  <v type="int" >       83 </v>
  <v type="int" >       93 </v>
  <v type="int" >       10 </v>
  <v type="int" >        8 </v>
  <v type="int" >       69 </v>
  <v type="int" >       63 </v>
  <v type="int" >      107 </v>
  <v type="int" >      109 </v>
  <v type="int" >        9 </v>
  <v type="int" >       11 </v>
  <v type="int" >      116 </v>
  <v type="int" >      114 </v>
  <v type="int" >       61 </v>
  <v type="int" >       67 </v>
  <v type="int" >       66 </v>
  <v type="int" >       72 </v>
  <v type="int" >       79 </v>
  <v type="int" >       77 </v>
  <v type="int" >      105 </v>
  <v type="int" >       95 </v>
  <v type="int" >       68 </v>
  <v type="int" >       62 </v>
  <v type="int" >      113 </v>
  <v type="int" >      115 </v>
  <v type="int" >       78 </v>
  <v type="int" >       80 </v>
 </varray>
 <kpoints>
  <generation param="listgenerated">
   <i name="divisions" type="int">      20 </i>
   <v>       0.00000000       0.00000000       0.00000000 </v>
   <v>       0.50000000       0.00000000       0.00000000 </v>
   <v>       0.33333333       0.33333333       0.00000000 </v>
   <v>       0.00000000       0.00000000       0.00000000 </v>
  </generation>
  <varray name="kpointlist" >
   <v>       0.00000000       0.00000000       0.00000000 </v>
   <v>       0.02631579       0.00000000       0.00000000 </v>
   <v>       0.05263158       0.00000000       0.00000000 </v>
   <v>       0.07894737       0.00000000       0.00000000 </v>
   <v>       0.10526316       0.00000000       0.00000000 </v>
   <v>       0.13157895       0.00000000       0.00000000 </v>
   <v>       0.15789474       0.00000000       0.00000000 </v>
   <v>       0.18421053       0.00000000       0.00000000 </v>
   <v>       0.21052632       0.00000000       0.00000000 </v>
   <v>       0.23684211       0.00000000       0.00000000 </v>
   <v>       0.26315789       0.00000000       0.00000000 </v>
   <v>       0.28947368       0.00000000       0.00000000 </v>
   <v>       0.31578947       0.00000000       0.00000000 </v>
   <v>       0.34210526       0.00000000       0.00000000 </v>
   <v>       0.36842105       0.00000000       0.00000000 </v>
   <v>       0.39473684       0.00000000       0.00000000 </v>
   <v>       0.42105263       0.00000000       0.00000000 </v>
   <v>       0.44736842       0.00000000       0.00000000 </v>
   <v>       0.47368421       0.00000000       0.00000000 </v>
   <v>       0.50000000       0.00000000       0.00000000 </v>
   <v>       0.50000000       0.00000000       0.00000000 </v>
   <v>       0.49122807       0.01754386       0.00000000 </v>
   <v>       0.48245614       0.03508772       0.00000000 </v>
   <v>       0.47368421       0.05263158       0.00000000 </v>
   <v>       0.46491228       0.07017544       0.00000000 </v>
   <v>       0.45614035       0.08771930       0.00000000 </v>
   <v>       0.44736842       0.10526316       0.00000000 </v>
   <v>       0.43859649       0.12280702       0.00000000 </v>
   <v>       0.42982456       0.14035088       0.00000000 </v>
   <v>       0.42105263       0.15789474       0.00000000 </v>
   <v>       0.41228070       0.17543860       0.00000000 </v>
   <v>       0.40350877       0.19298246       0.00000000 </v>
   <v>       0.39473684       0.21052632       0.00000000 </v>
   <v>       0.38596491       0.22807018       0.00000000 </v>
   <v>       0.37719298       0.24561404       0.00000000 </v>
   <v>       0.36842105       0.26315789       0.00000000 </v>
   <v>       0.35964912       0.28070175       0.00000000 </v>
   <v>       0.35087719       0.29824561       0.00000000 </v>
   <v>       0.34210526       0.31578947       0.00000000 </v>
   <v>       0.33333333       0.33333333       0.00000000 </v>
   <v>       0.33333333       0.33333333       0.00000000 </v>
   <v>       0.31578947       0.31578947       0.00000000 </v>
   <v>       0.29824561       0.29824561       0.00000000 </v>
   <v>       0.28070175       0.28070175       0.00000000 </v>
   <v>       0.26315789       0.26315789       0.00000000 </v>
   <v>       0.24561404       0.24561404       0.00000000 </v>
   <v>       0.22807018       0.22807018       0.00000000 </v>
   <v>       0.21052632       0.21052632       0.00000000 </v>
   <v>       0.19298246       0.19298246       0.00000000 </v>
   <v>       0.17543860       0.17543860       0.00000000 </v>
   <v>       0.15789474       0.15789474       0.00000000 </v>
   <v>       0.14035088       0.14035088       0.00000000 </v>
   <v>       0.12280702       0.12280702       0.00000000 </v>
   <v>       0.10526316       0.10526316       0.00000000 </v>
   <v>       0.08771930       0.08771930       0.00000000 </v>
   <v>       0.07017544       0.07017544       0.00000000 </v>
   <v>       0.05263158       0.05263158       0.00000000 </v>
   <v>       0.03508772       0.03508772       0.00000000 </v>
   <v>       0.01754386       0.01754386       0.00000000 </v>
   <v>       0.00000000       0.00000000       0.00000000 </v>
  </varray>
  <varray name="weights" >
   <v>       0.01666667 </v>
   <v>       0.01666667 </v>
   <v>       0.01666667 </v>
   <v>       0.01666667 </v>
   <v>       0.01666667 </v>
   <v>       0.01666667 </v>
   <v>       0.01666667 </v>
   <v>       0.01666667 </v>
   <v>       0.01666667 </v>
   <v>       0.01666667 </v>
   <v>       0.01666667 </v>
   <v>       0.01666667 </v>
   <v>       0.01666667 </v>
   <v>       0.01666667 </v>
   <v>       0.01666667 </v>
   <v>       0.01666667 </v>
   <v>       0.01666667 </v>
   <v>       0.01666667 </v>
   <v>       0.01666667 </v>
   <v>       0.01666667 </v>
   <v>       0.01666667 </v>
   <v>       0.01666667 </v>
   <v>       0.01666667 </v>
   <v>       0.01666667 </v>
   <v>       0.01666667 </v>
   <v>       0.01666667 </v>
   <v>       0.01666667 </v>
   <v>       0.01666667 </v>
   <v>       0.01666667 </v>
   <v>       0.01666667 </v>
   <v>       0.01666667 </v>
   <v>       0.01666667 </v>
   <v>       0.01666667 </v>
   <v>       0.01666667 </v>
   <v>       0.01666667 </v>
   <v>       0.01666667 </v>
   <v>       0.01666667 </v>
   <v>       0.01666667 </v>
   <v>       0.01666667 </v>
   <v>       0.01666667 </v>
   <v>       0.01666667 </v>
   <v>       0.01666667 </v>
   <v>       0.01666667 </v>
   <v>       0.01666667 </v>
   <v>       0.01666667 </v>
   <v>       0.01666667 </v>
   <v>       0.01666667 </v>
   <v>       0.01666667 </v>
   <v>       0.01666667 </v>
   <v>       0.01666667 </v>
   <v>       0.01666667 </v>
   <v>       0.01666667 </v>
   <v>       0.01666667 </v>
   <v>       0.01666667 </v>
   <v>       0.01666667 </v>
   <v>       0.01666667 </v>
   <v>       0.01666667 </v>
   <v>       0.01666667 </v>
   <v>       0.01666667 </v>
   <v>       0.01666667 </v>
  </varray>
 </kpoints>
 <parameters>
  <separator name="general" >
   <i type="string" name="SYSTEM">Simulation for cell shape cell volume r</i>
   <i type="logical" name="LCOMPAT"> F  </i>
  </separator>
  <separator name="electronic" >
   <i type="string" name="PREC">high</i>
   <i name="ENMAX">    500.00000000</i>
   <i name="ENAUG">    644.87300000</i>
   <i name="EDIFF">      0.00001000</i>
   <i type="int" name="IALGO">    38</i>
   <i type="int" name="IWAVPR">    10</i>
   <i type="int" name="NBANDS">   256</i>
   <i name="NELECT">    378.00000000</i>
   <i type="int" name="TURBO">     0</i>
   <i type="int" name="IRESTART">     0</i>
   <i type="int" name="NREBOOT">     0</i>
   <i type="int" name="NMIN">     0</i>
   <i name="EREF">      0.00000000</i>
   <separator name="electronic smearing" >
    <i type="int" name="ISMEAR">     0</i>
    <i name="SIGMA">      0.01000000</i>
    <i name="KSPACING">      0.50000000</i>
    <i type="logical" name="KGAMMA"> T  </i>
   </separator>
   <separator name="electronic projectors" >
    <i type="logical" name="LREAL"> T  </i>
    <v name="ROPT">     -0.00040000     -0.00040000     -0.00040000     -0.00040000</v>
    <i type="int" name="LMAXPAW">  -100</i>
    <i type="int" name="LMAXMIX">     2</i>
    <i type="logical" name="NLSPLINE"> F  </i>
   </separator>
   <separator name="electronic startup" >
    <i type="int" name="ISTART">     1</i>
    <i type="int" name="ICHARG">    11</i>
    <i type="int" name="INIWAV">     1</i>
   </separator>
   <separator name="electronic spin" >
    <i type="int" name="ISPIN">     1</i>
    <i type="logical" name="LNONCOLLINEAR"> F  </i>
    <v name="MAGMOM">      1.00000000      1.00000000      1.00000000      1.00000000      1.00000000      1.00000000      1.00000000      1.00000000      1.00000000      1.00000000      1.00000000      1.00000000      1.00000000      1.00000000      1.00000000      1.00000000      1.00000000      1.00000000      1.00000000      1.00000000
      1.00000000      1.00000000      1.00000000      1.00000000      1.00000000      1.00000000      1.00000000      1.00000000      1.00000000      1.00000000      1.00000000      1.00000000      1.00000000      1.00000000      1.00000000      1.00000000      1.00000000      1.00000000      1.00000000      1.00000000
      1.00000000      1.00000000      1.00000000      1.00000000      1.00000000      1.00000000      1.00000000      1.00000000      1.00000000      1.00000000      1.00000000      1.00000000      1.00000000      1.00000000      1.00000000      1.00000000      1.00000000      1.00000000      1.00000000      1.00000000
      1.00000000      1.00000000      1.00000000      1.00000000      1.00000000      1.00000000      1.00000000      1.00000000      1.00000000      1.00000000      1.00000000      1.00000000      1.00000000      1.00000000      1.00000000      1.00000000      1.00000000      1.00000000      1.00000000      1.00000000
      1.00000000      1.00000000      1.00000000      1.00000000      1.00000000      1.00000000      1.00000000      1.00000000      1.00000000      1.00000000      1.00000000      1.00000000      1.00000000      1.00000000      1.00000000      1.00000000      1.00000000      1.00000000      1.00000000      1.00000000
      1.00000000      1.00000000      1.00000000      1.00000000      1.00000000      1.00000000      1.00000000      1.00000000      1.00000000      1.00000000      1.00000000      1.00000000      1.00000000      1.00000000      1.00000000      1.00000000      1.00000000</v>
    <i name="NUPDOWN">     -1.00000000</i>
    <i type="logical" name="LSORBIT"> F  </i>
    <v name="SAXIS">      0.00000000      0.00000000      1.00000000</v>
    <i type="logical" name="LSPIRAL"> F  </i>
    <v name="QSPIRAL">      0.00000000      0.00000000      0.00000000</v>
    <i type="logical" name="LZEROZ"> F  </i>
   </separator>
   <separator name="electronic exchange-correlation" >
    <i type="logical" name="LASPH"> F  </i>
    <i type="logical" name="LMETAGGA"> F  </i>
   </separator>
   <separator name="electronic convergence" >
    <i type="int" name="NELM">   200</i>
    <i type="int" name="NELMDL">     0</i>
    <i type="int" name="NELMIN">     2</i>
    <i name="ENINI">    500.00000000</i>
    <separator name="electronic convergence detail" >
     <i type="logical" name="LDIAG"> T  </i>
     <i type="logical" name="LSUBROT"> F  </i>
     <i name="WEIMIN">      0.00000000</i>
     <i name="EBREAK">      0.00000001</i>
     <i name="DEPER">      0.30000000</i>
     <i type="int" name="NRMM">     4</i>
     <i name="TIME">      0.40000000</i>
    </separator>
   </separator>
   <separator name="electronic mixer" >
    <i name="AMIX">      0.40000000</i>
    <i name="BMIX">      1.00000000</i>
    <i name="AMIN">      0.10000000</i>
    <i name="AMIX_MAG">      1.60000000</i>
    <i name="BMIX_MAG">      1.00000000</i>
    <separator name="electronic mixer details" >
     <i type="int" name="IMIX">     4</i>
     <i type="logical" name="MIXFIRST"> F  </i>
     <i type="int" name="MAXMIX">   -45</i>
     <i name="WC">    100.00000000</i>
     <i type="int" name="INIMIX">     1</i>
     <i type="int" name="MIXPRE">     1</i>
     <i type="int" name="MREMOVE">     5</i>
    </separator>
   </separator>
   <separator name="electronic dipolcorrection" >
    <i type="logical" name="LDIPOL"> F  </i>
    <i type="logical" name="LMONO"> F  </i>
    <i type="int" name="IDIPOL">     0</i>
    <i name="EPSILON">      1.00000000</i>
    <v name="DIPOL">   -100.00000000   -100.00000000   -100.00000000</v>
    <i name="EFIELD">      0.00000000</i>
   </separator>
  </separator>
  <separator name="grids" >
   <i type="int" name="NGX">   216</i>
   <i type="int" name="NGY">   216</i>
   <i type="int" name="NGZ">   150</i>
   <i type="int" name="NGXF">   336</i>
   <i type="int" name="NGYF">   336</i>
   <i type="int" name="NGZF">   224</i>
   <i type="logical" name="ADDGRID"> F  </i>
  </separator>
  <separator name="ionic" >
   <i type="int" name="NSW">     0</i>
   <i type="int" name="IBRION">    -1</i>
   <i type="int" name="MDALGO">     0</i>
   <i type="int" name="ISIF">     2</i>
   <i name="PSTRESS">      0.00000000</i>
   <i name="EDIFFG">     -0.01000000</i>
   <i type="int" name="NFREE">     0</i>
   <i name="POTIM">      0.30000000</i>
   <i name="SMASS">     -3.00000000</i>
   <i name="SCALEE">      1.00000000</i>
  </separator>
  <separator name="ionic md" >
   <i name="TEBEG">      0.00010000</i>
   <i name="TEEND">      0.00010000</i>
   <i type="int" name="NBLOCK">     1</i>
   <i type="int" name="KBLOCK">     1</i>
   <i type="int" name="NPACO">   256</i>
   <i name="APACO">     16.00000000</i>
  </separator>
  <separator name="symmetry" >
   <i type="int" name="ISYM">     2</i>
   <i name="SYMPREC">      0.00001000</i>
  </separator>
  <separator name="dos" >
   <i type="int" name="LORBIT">     0</i>
   <v name="RWIGS">     -1.00000000     -1.00000000     -1.00000000     -1.00000000</v>
   <i type="int" name="NEDOS">   301</i>
   <i name="EMIN">     10.00000000</i>
   <i name="EMAX">    -10.00000000</i>
   <i name="EFERMI">      0.00000000</i>
  </separator>
  <separator name="writing" >
   <i type="int" name="NWRITE">     0</i>
   <i type="logical" name="LWAVE"> F  </i>
   <i type="logical" name="LDOWNSAMPLE"> F  </i>
   <i type="logical" name="LCHARG"> F  </i>
   <i type="logical" name="LPARD"> F  </i>
   <i type="logical" name="LVTOT"> F  </i>
   <i type="logical" name="LVHAR"> F  </i>
   <i type="logical" name="LELF"> F  </i>
   <i type="logical" name="LOPTICS"> F  </i>
   <v name="STM">      0.00000000      0.00000000      0.00000000      0.00000000      0.00000000      0.00000000      0.00000000</v>
  </separator>
  <separator name="performance" >
   <i type="int" name="NPAR">    16</i>
   <i type="int" name="NSIM">     4</i>
   <i type="int" name="NBLK">    -1</i>
   <i type="logical" name="LPLANE"> T  </i>
   <i type="logical" name="LSCALAPACK"> T  </i>
   <i type="logical" name="LSCAAWARE"> F  </i>
   <i type="logical" name="LSCALU"> F  </i>
   <i type="logical" name="LASYNC"> F  </i>
   <i type="logical" name="LORBITALREAL"> F  </i>
  </separator>
  <separator name="miscellaneous" >
   <i type="int" name="IDIOT">     3</i>
   <i type="int" name="ISPECIAL">     0</i>
   <i type="logical" name="LMUSIC"> F  </i>
   <v name="POMASS">     14.00100000     16.00000000     12.01100000      1.00000000</v>
   <v name="DARWINR">      0.00000000      0.00000000      0.00000000      0.00000000</v>
   <v name="DARWINV">      1.00000000      1.00000000      1.00000000      1.00000000</v>
   <i type="logical" name="LCORR"> T  </i>
  </separator>
  <i type="logical" name="GGA_COMPAT"> T  </i>
  <i type="logical" name="LBERRY"> F  </i>
  <i type="int" name="ICORELEVEL">     0</i>
  <i type="logical" name="LDAU"> F  </i>
  <i type="int" name="I_CONSTRAINED_M">     0</i>
  <separator name="electronic exchange-correlation" >
   <i type="string" name="GGA">PE</i>
   <i type="int" name="VOSKOWN">     0</i>
   <i type="logical" name="LHFCALC"> F  </i>
   <i type="string" name="PRECFOCK"></i>
   <i type="logical" name="LSYMGRAD"> F  </i>
   <i type="logical" name="LHFONE"> F  </i>
   <i type="logical" name="LRHFCALC"> F  </i>
   <i type="logical" name="LTHOMAS"> F  </i>
   <i type="logical" name="LMODELHF"> F  </i>
   <i name="ENCUT4O">     -1.00000000</i>
   <i type="int" name="EXXOEP">     0</i>
   <i type="int" name="FOURORBIT">     0</i>
   <i name="AEXX">      0.00000000</i>
   <i name="HFALPHA">      0.00000000</i>
   <i name="MCALPHA">      0.00000000</i>
   <i name="ALDAX">      1.00000000</i>
   <i name="AGGAX">      1.00000000</i>
   <i name="ALDAC">      1.00000000</i>
   <i name="AGGAC">      1.00000000</i>
   <i type="int" name="NKREDX">     1</i>
   <i type="int" name="NKREDY">     1</i>
   <i type="int" name="NKREDZ">     1</i>
   <i type="logical" name="SHIFTRED"> F  </i>
   <i type="logical" name="ODDONLY"> F  </i>
   <i type="logical" name="EVENONLY"> F  </i>
   <i type="int" name="LMAXFOCK">     0</i>
   <i type="int" name="NMAXFOCKAE">     0</i>
   <i type="logical" name="LFOCKAEDFT"> F  </i>
   <i name="HFSCREEN">      0.00000000</i>
   <i name="HFSCREENC">      0.00000000</i>
   <i type="int" name="NBANDSGWLOW">     0</i>
  </separator>
  <separator name="vdW DFT" >
   <i type="logical" name="LUSE_VDW"> F  </i>
   <i name="Zab_VDW">     -0.84910000</i>
   <i name="PARAM1">      0.12340000</i>
   <i name="PARAM2">      1.00000000</i>
   <i name="PARAM3">      0.00000000</i>
  </separator>
  <separator name="model GW" >
   <i type="int" name="MODEL_GW">     0</i>
   <i name="MODEL_EPS0">     77.37365172</i>
   <i name="MODEL_ALPHA">      1.00000000</i>
  </separator>
  <separator name="linear response parameters" >
   <i type="logical" name="LEPSILON"> F  </i>
   <i type="logical" name="LRPA"> F  </i>
   <i type="logical" name="LNABLA"> F  </i>
   <i type="logical" name="LVEL"> F  </i>
   <i type="int" name="KINTER">     0</i>
   <i name="CSHIFT">      0.10000000</i>
   <i name="OMEGAMAX">     -1.00000000</i>
   <i name="DEG_THRESHOLD">      0.00200000</i>
   <i name="RTIME">     -0.10000000</i>
   <i name="WPLASMAI">      0.00000000</i>
   <v name="DFIELD">      0.00000000      0.00000000      0.00000000</v>
   <v name="WPLASMA">      0.00000000      0.00000000      0.00000000      0.00000000      0.00000000      0.00000000      0.00000000      0.00000000      0.00000000</v>
  </separator>
  <separator name="orbital magnetization" >
   <i type="logical" name="NUCIND"> F  </i>
   <v name="MAGPOS">      0.00000000      0.00000000      0.00000000</v>
   <i type="logical" name="LNICSALL"> T  </i>
   <i type="logical" name="ORBITALMAG"> F  </i>
   <i type="logical" name="LMAGBLOCH"> F  </i>
   <i type="logical" name="LCHIMAG"> F  </i>
   <i type="logical" name="LGAUGE"> T  </i>
   <i type="int" name="MAGATOM">     0</i>
   <v name="MAGDIPOL">      0.00000000      0.00000000      0.00000000</v>
   <v name="AVECCONST">      0.00000000      0.00000000      0.00000000</v>
  </separator>
  <separator name="response functions" >
   <i type="logical" name="LADDER"> F  </i>
   <i type="logical" name="LRPAFORCE"> F  </i>
   <i type="logical" name="LFXC"> F  </i>
   <i type="logical" name="LHARTREE"> T  </i>
   <i type="int" name="IBSE">     0</i>
   <v type="int" name="KPOINT">    -1     0     0     0</v>
   <i type="logical" name="LTCTE"> F  </i>
   <i type="logical" name="LTETE"> F  </i>
   <i type="logical" name="LTRIPLET"> F  </i>
   <i type="logical" name="LFXCEPS"> F  </i>
   <i type="logical" name="LFXHEG"> F  </i>
   <i type="int" name="NATURALO">     2</i>
   <i type="logical" name="L2ORDER"> F  </i>
   <i type="logical" name="LMP2LT"> F  </i>
   <i type="logical" name="LUSEW"> F  </i>
   <i name="ENCUTGW">     -2.00000000</i>
   <i name="ENCUTGWSOFT">     -2.00000000</i>
   <i name="ENCUTLF">     -1.00000000</i>
   <i type="int" name="LMAXMP2">    -1</i>
   <i name="SCISSOR">      0.00000000</i>
   <i type="int" name="NOMEGA">     0</i>
   <i type="int" name="NOMEGAR">     0</i>
   <i type="int" name="NBANDSGW">    -1</i>
   <i type="int" name="NBANDSO">    -1</i>
   <i type="int" name="NBANDSV">    -1</i>
   <i type="int" name="NELM">   200</i>
   <i type="int" name="NELMHF">     1</i>
   <i type="int" name="DIM">     3</i>
   <i type="int" name="ANTIRES">     0</i>
   <i name="OMEGAMAX">    -30.00000000</i>
   <i name="OMEGAMIN">    -30.00000000</i>
   <i name="OMEGATL">   -200.00000000</i>
   <i type="int" name="OMEGAGRID">   140</i>
   <i name="CSHIFT">     -0.10000000</i>
   <i type="logical" name="SELFENERGY"> F  </i>
   <i type="logical" name="LSPECTRAL"> F  </i>
   <i type="logical" name="LSPECTRALGW"> F  </i>
   <i type="logical" name="LSINGLES"> F  </i>
   <i type="logical" name="LFERMIGW"> F  </i>
   <i type="logical" name="ODDONLYGW"> F  </i>
   <i type="logical" name="EVENONLYGW"> F  </i>
   <i type="int" name="NKREDLFX">     1</i>
   <i type="int" name="NKREDLFY">     1</i>
   <i type="int" name="NKREDLFZ">     1</i>
   <i type="int" name="MAXMEM">  2800</i>
   <i type="int" name="TELESCOPE">     0</i>
   <i type="int" name="TAUPAR">     1</i>
   <i type="int" name="OMEGAPAR">    -1</i>
   <i name="LAMBDA">      1.00000000</i>
  </separator>
  <separator name="External order field" >
   <i name="OFIELD_KAPPA">      0.00000000</i>
   <v name="OFIELD_K">      0.00000000      0.00000000      0.00000000</v>
   <i name="OFIELD_Q6_NEAR">      0.00000000</i>
   <i name="OFIELD_Q6_FAR">      0.00000000</i>
   <i name="OFIELD_A">      0.00000000</i>
  </separator>
  <separator name="solvation model" >
   <i type="logical" name="LSOL"> F  </i>
  </separator>
 </parameters>
 <atominfo>
  <atoms>     117 </atoms>
  <types>       4 </types>
  <array name="atoms" >
   <dimension dim="1">ion</dimension>
   <field type="string">element</field>
   <field type="int">atomtype</field>
   <set>
    <rc><c>N </c><c>   1</c></rc>
    <rc><c>N </c><c>   1</c></rc>
    <rc><c>N </c><c>   1</c></rc>
    <rc><c>N </c><c>   1</c></rc>
    <rc><c>N </c><c>   1</c></rc>
    <rc><c>N </c><c>   1</c></rc>
    <rc><c>N </c><c>   1</c></rc>
    <rc><c>N </c><c>   1</c></rc>
    <rc><c>N </c><c>   1</c></rc>
    <rc><c>N </c><c>   1</c></rc>
    <rc><c>N </c><c>   1</c></rc>
    <rc><c>N </c><c>   1</c></rc>
    <rc><c>O </c><c>   2</c></rc>
    <rc><c>O </c><c>   2</c></rc>
    <rc><c>O </c><c>   2</c></rc>
    <rc><c>C </c><c>   3</c></rc>
    <rc><c>C </c><c>   3</c></rc>
    <rc><c>C </c><c>   3</c></rc>
    <rc><c>C </c><c>   3</c></rc>
    <rc><c>C </c><c>   3</c></rc>
    <rc><c>C </c><c>   3</c></rc>
    <rc><c>C </c><c>   3</c></rc>
    <rc><c>C </c><c>   3</c></rc>
    <rc><c>C </c><c>   3</c></rc>
    <rc><c>C </c><c>   3</c></rc>
    <rc><c>C </c><c>   3</c></rc>
    <rc><c>C </c><c>   3</c></rc>
    <rc><c>C </c><c>   3</c></rc>
    <rc><c>C </c><c>   3</c></rc>
    <rc><c>C </c><c>   3</c></rc>
    <rc><c>C </c><c>   3</c></rc>
    <rc><c>C </c><c>   3</c></rc>
    <rc><c>C </c><c>   3</c></rc>
    <rc><c>C </c><c>   3</c></rc>
    <rc><c>C </c><c>   3</c></rc>
    <rc><c>C </c><c>   3</c></rc>
    <rc><c>C </c><c>   3</c></rc>
    <rc><c>C </c><c>   3</c></rc>
    <rc><c>C </c><c>   3</c></rc>
    <rc><c>C </c><c>   3</c></rc>
    <rc><c>C </c><c>   3</c></rc>
    <rc><c>C </c><c>   3</c></rc>
    <rc><c>C </c><c>   3</c></rc>
    <rc><c>C </c><c>   3</c></rc>
    <rc><c>C </c><c>   3</c></rc>
    <rc><c>C </c><c>   3</c></rc>
    <rc><c>C </c><c>   3</c></rc>
    <rc><c>C </c><c>   3</c></rc>
    <rc><c>C </c><c>   3</c></rc>
    <rc><c>C </c><c>   3</c></rc>
    <rc><c>C </c><c>   3</c></rc>
    <rc><c>C </c><c>   3</c></rc>
    <rc><c>C </c><c>   3</c></rc>
    <rc><c>C </c><c>   3</c></rc>
    <rc><c>C </c><c>   3</c></rc>
    <rc><c>C </c><c>   3</c></rc>
    <rc><c>C </c><c>   3</c></rc>
    <rc><c>C </c><c>   3</c></rc>
    <rc><c>C </c><c>   3</c></rc>
    <rc><c>C </c><c>   3</c></rc>
    <rc><c>C </c><c>   3</c></rc>
    <rc><c>C </c><c>   3</c></rc>
    <rc><c>C </c><c>   3</c></rc>
    <rc><c>C </c><c>   3</c></rc>
    <rc><c>C </c><c>   3</c></rc>
    <rc><c>C </c><c>   3</c></rc>
    <rc><c>C </c><c>   3</c></rc>
    <rc><c>C </c><c>   3</c></rc>
    <rc><c>C </c><c>   3</c></rc>
    <rc><c>C </c><c>   3</c></rc>
    <rc><c>C </c><c>   3</c></rc>
    <rc><c>C </c><c>   3</c></rc>
    <rc><c>C </c><c>   3</c></rc>
    <rc><c>C </c><c>   3</c></rc>
    <rc><c>C </c><c>   3</c></rc>
    <rc><c>C </c><c>   3</c></rc>
    <rc><c>C </c><c>   3</c></rc>
    <rc><c>C </c><c>   3</c></rc>
    <rc><c>C </c><c>   3</c></rc>
    <rc><c>C </c><c>   3</c></rc>
    <rc><c>C </c><c>   3</c></rc>
    <rc><c>H </c><c>   4</c></rc>
    <rc><c>H </c><c>   4</c></rc>
    <rc><c>H </c><c>   4</c></rc>
    <rc><c>H </c><c>   4</c></rc>
    <rc><c>H </c><c>   4</c></rc>
    <rc><c>H </c><c>   4</c></rc>
    <rc><c>H </c><c>   4</c></rc>
    <rc><c>H </c><c>   4</c></rc>
    <rc><c>H </c><c>   4</c></rc>
    <rc><c>H </c><c>   4</c></rc>
    <rc><c>H </c><c>   4</c></rc>
    <rc><c>H </c><c>   4</c></rc>
    <rc><c>H </c><c>   4</c></rc>
    <rc><c>H </c><c>   4</c></rc>
    <rc><c>H </c><c>   4</c></rc>
    <rc><c>H </c><c>   4</c></rc>
    <rc><c>H </c><c>   4</c></rc>
    <rc><c>H </c><c>   4</c></rc>
    <rc><c>H </c><c>   4</c></rc>
    <rc><c>H </c><c>   4</c></rc>
    <rc><c>H </c><c>   4</c></rc>
    <rc><c>H </c><c>   4</c></rc>
    <rc><c>H </c><c>   4</c></rc>
    <rc><c>H </c><c>   4</c></rc>
    <rc><c>H </c><c>   4</c></rc>
    <rc><c>H </c><c>   4</c></rc>
    <rc><c>H </c><c>   4</c></rc>
    <rc><c>H </c><c>   4</c></rc>
    <rc><c>H </c><c>   4</c></rc>
    <rc><c>H </c><c>   4</c></rc>
    <rc><c>H </c><c>   4</c></rc>
    <rc><c>H </c><c>   4</c></rc>
    <rc><c>H </c><c>   4</c></rc>
    <rc><c>H </c><c>   4</c></rc>
    <rc><c>H </c><c>   4</c></rc>
    <rc><c>H </c><c>   4</c></rc>
   </set>
  </array>
  <array name="atomtypes" >
   <dimension dim="1">type</dimension>
   <field type="int">atomspertype</field>
   <field type="string">element</field>
   <field>mass</field>
   <field>valence</field>
   <field type="string">pseudopotential</field>
   <set>
    <rc><c>  12</c><c>N </c><c>     14.00100000</c><c>      5.00000000</c><c>  PAW_PBE N 08Apr2002                   </c></rc>
    <rc><c>   3</c><c>O </c><c>     16.00000000</c><c>      6.00000000</c><c>  PAW_PBE O 08Apr2002                   </c></rc>
    <rc><c>  66</c><c>C </c><c>     12.01100000</c><c>      4.00000000</c><c>  PAW_PBE C 08Apr2002                   </c></rc>
    <rc><c>  36</c><c>H </c><c>      1.00000000</c><c>      1.00000000</c><c>  PAW_PBE H 15Jun2001                   </c></rc>
   </set>
  </array>
 </atominfo>
 <structure name="initialpos" >
  <crystal>
   <varray name="basis" >
    <v>      29.51437148       0.00000000       0.00000000 </v>
    <v>     -14.75718574      25.56019548       0.00000000 </v>
    <v>       0.00000000       0.00000000      20.00000000 </v>
   </varray>
   <i name="volume">  15087.86208519 </i>
   <varray name="rec_basis" >
    <v>       0.03388180       0.01956167       0.00000000 </v>
    <v>       0.00000000       0.03912333       0.00000000 </v>
    <v>       0.00000000       0.00000000       0.05000000 </v>
   </varray>
  </crystal>
  <varray name="positions" >
   <v>       0.01956101       0.50978050       0.69414719 </v>
   <v>       0.38709056       0.69354528       0.49767793 </v>
   <v>       0.30645472       0.61290944       0.49767793 </v>
   <v>       0.30645472       0.69354528       0.49767793 </v>
   <v>       0.61291646       0.30645823       0.50220521 </v>
   <v>       0.69354177       0.38708354       0.50220521 </v>
   <v>       0.69354177       0.30645823       0.50220521 </v>
   <v>       0.49021950       0.50978050       0.69414719 </v>
   <v>       0.52803926       0.47196074       0.62615729 </v>
   <v>       0.49021950       0.98043899       0.69414719 </v>
   <v>       0.52803926       0.05607852       0.62615729 </v>
   <v>       0.94392148       0.47196074       0.62615729 </v>
   <v>       0.44987240       0.55012760       0.64446028 </v>
   <v>       0.44987240       0.89974480       0.64446028 </v>
   <v>       0.10025520       0.55012760       0.64446028 </v>
   <v>       0.02691925       0.51345963       0.57014304 </v>
   <v>       0.02888060       0.51444030       0.44892325 </v>
   <v>       0.05245963       0.52622982       0.63748262 </v>
   <v>       0.35904661       0.71809323       0.49782148 </v>
   <v>       0.35904661       0.64095339       0.49782148 </v>
   <v>       0.28190677       0.64095339       0.49782148 </v>
   <v>       0.38797560       0.61202440       0.49942981 </v>
   <v>       0.44291332       0.63907661       0.50085504 </v>
   <v>       0.47004712       0.61188524       0.50466646 </v>
   <v>       0.44293130       0.55706870       0.50767324 </v>
   <v>       0.38811476       0.52995288       0.50466646 </v>
   <v>       0.36092339       0.55708668       0.50085504 </v>
   <v>       0.38797560       0.77595121       0.49942981 </v>
   <v>       0.44291332       0.80383671       0.50085504 </v>
   <v>       0.47004712       0.85816188       0.50466646 </v>
   <v>       0.44293130       0.88586259       0.50767324 </v>
   <v>       0.38811476       0.85816188       0.50466646 </v>
   <v>       0.36092339       0.80383671       0.50085504 </v>
   <v>       0.22404879       0.61202440       0.49942981 </v>
   <v>       0.19616329       0.63907661       0.50085504 </v>
   <v>       0.14183812       0.61188524       0.50466646 </v>
   <v>       0.11413741       0.55706870       0.50767324 </v>
   <v>       0.14183812       0.52995288       0.50466646 </v>
   <v>       0.19616329       0.55708668       0.50085504 </v>
   <v>       0.64096387       0.28192775       0.50221227 </v>
   <v>       0.64096387       0.35903613       0.50221227 </v>
   <v>       0.71807225       0.35903613       0.50221227 </v>
   <v>       0.61200104       0.38799896       0.50259158 </v>
   <v>       0.55704327       0.36089294       0.50286530 </v>
   <v>       0.52984983       0.38817621       0.50355698 </v>
   <v>       0.55683217       0.44316783       0.50370293 </v>
   <v>       0.61182379       0.47015017       0.50355698 </v>
   <v>       0.63910706       0.44295673       0.50286530 </v>
   <v>       0.61200104       0.22400208       0.50259158 </v>
   <v>       0.55704327       0.19615033       0.50286530 </v>
   <v>       0.52984983       0.14167363       0.50355698 </v>
   <v>       0.55683217       0.11366434       0.50370293 </v>
   <v>       0.61182379       0.14167363       0.50355698 </v>
   <v>       0.63910706       0.19615033       0.50286530 </v>
   <v>       0.77599792       0.38799896       0.50259158 </v>
   <v>       0.80384967       0.36089294       0.50286530 </v>
   <v>       0.85832637       0.38817621       0.50355698 </v>
   <v>       0.88633566       0.44316783       0.50370293 </v>
   <v>       0.85832637       0.47015017       0.50355698 </v>
   <v>       0.80384967       0.44295673       0.50286530 </v>
   <v>       0.52772097       0.47227903       0.50496667 </v>
   <v>       0.51418253       0.48581747       0.56647900 </v>
   <v>       0.48654037       0.51345963       0.57014304 </v>
   <v>       0.47207992       0.52792008       0.50973853 </v>
   <v>       0.47377018       0.52622982       0.63748262 </v>
   <v>       0.51533326       0.48466674       0.68605998 </v>
   <v>       0.52772097       0.05544193       0.50496667 </v>
   <v>       0.51418253       0.02836506       0.56647900 </v>
   <v>       0.48654037       0.97308075       0.57014304 </v>
   <v>       0.47207992       0.94415985       0.50973853 </v>
   <v>       0.47377018       0.94754037       0.63748262 </v>
   <v>       0.51533326       0.03066652       0.68605998 </v>
   <v>       0.94455807       0.47227903       0.50496667 </v>
   <v>       0.97163494       0.48581747       0.56647900 </v>
   <v>       0.05584015       0.52792008       0.50973853 </v>
   <v>       0.96933348       0.48466674       0.68605998 </v>
   <v>       0.48555970       0.51444030       0.44892325 </v>
   <v>       0.51291990       0.48708010       0.44653026 </v>
   <v>       0.48555970       0.97111940       0.44892325 </v>
   <v>       0.51291990       0.02583980       0.44653026 </v>
   <v>       0.97416020       0.48708010       0.44653026 </v>
   <v>       0.05128528       0.52564264       0.40251838 </v>
   <v>       0.51270210       0.87949525       0.50662601 </v>
   <v>       0.46376354       0.78208445       0.49953782 </v>
   <v>       0.36679316       0.87949525       0.50662601 </v>
   <v>       0.31832091       0.78208445       0.49953782 </v>
   <v>       0.21791555       0.68167909       0.49953782 </v>
   <v>       0.12050475       0.63320684       0.50662601 </v>
   <v>       0.21791555       0.53623646       0.49953782 </v>
   <v>       0.12050475       0.48729790       0.50662601 </v>
   <v>       0.31832091       0.53623646       0.49953782 </v>
   <v>       0.36679316       0.48729790       0.50662601 </v>
   <v>       0.51270210       0.63320684       0.50662601 </v>
   <v>       0.46376354       0.68167909       0.49953782 </v>
   <v>       0.48715637       0.12022173       0.50367405 </v>
   <v>       0.53617862       0.21789543       0.50248400 </v>
   <v>       0.63306536       0.12022173       0.50367405 </v>
   <v>       0.68171681       0.21789543       0.50248400 </v>
   <v>       0.78210457       0.31828319       0.50248400 </v>
   <v>       0.87977827       0.36693464       0.50367405 </v>
   <v>       0.78210457       0.46382138       0.50248400 </v>
   <v>       0.87977827       0.51284363       0.50367405 </v>
   <v>       0.68171681       0.46382138       0.50248400 </v>
   <v>       0.63306536       0.51284363       0.50367405 </v>
   <v>       0.48715637       0.36693464       0.50367405 </v>
   <v>       0.53617862       0.31828319       0.50248400 </v>
   <v>       0.52819909       0.47180091       0.72991009 </v>
   <v>       0.54791046       0.45208954       0.62443833 </v>
   <v>       0.52819909       0.05639819       0.72991009 </v>
   <v>       0.54791046       0.09582091       0.62443833 </v>
   <v>       0.94360181       0.47180091       0.72991009 </v>
   <v>       0.90417909       0.45208954       0.62443833 </v>
   <v>       0.52295199       0.47704801       0.39837620 </v>
   <v>       0.47435736       0.52564264       0.40251838 </v>
   <v>       0.52295199       0.04590399       0.39837620 </v>
   <v>       0.47435736       0.94871472       0.40251838 </v>
   <v>       0.95409601       0.47704801       0.39837620 </v>
  </varray>
 </structure>
 <calculation>
  <scstep>
   <time name="dav">  638.60  646.42</time>
   <time name="total">  638.86  646.70</time>
   <energy>
    <i name="alphaZ">     44.37407875 </i>
    <i name="ewald">  47722.25935403 </i>
    <i name="hartreedc"> -59712.20601981 </i>
    <i name="XCdc">   1332.25112585 </i>
    <i name="pawpsdc">  35530.62411589 </i>
    <i name="pawaedc"> -35599.42317997 </i>
    <i name="eentropy">     -0.00000000 </i>
    <i name="bandstr">  -4795.50712881 </i>
    <i name="atom">  14632.79480330 </i>
    <i name="e_fr_energy">   -844.83285078 </i>
    <i name="e_wo_entrp">   -844.83285078 </i>
    <i name="e_0_energy">   -844.83285078 </i>
   </energy>
  </scstep>
  <scstep>
   <time name="dav">  721.82  730.45</time>
   <time name="total">  721.82  730.45</time>
   <energy>
    <i name="e_fr_energy">   -845.30211029 </i>
    <i name="e_wo_entrp">   -845.30211029 </i>
    <i name="e_0_energy">   -845.30211029 </i>
   </energy>
  </scstep>
  <scstep>
   <time name="dav">  803.80  813.53</time>
   <time name="total">  803.80  813.53</time>
   <energy>
    <i name="e_fr_energy">   -845.31504265 </i>
    <i name="e_wo_entrp">   -845.31504265 </i>
    <i name="e_0_energy">   -845.31504265 </i>
   </energy>
  </scstep>
  <scstep>
   <time name="dav">  712.21  720.87</time>
   <time name="total">  712.21  720.87</time>
   <energy>
    <i name="e_fr_energy">   -845.31529701 </i>
    <i name="e_wo_entrp">   -845.31529701 </i>
    <i name="e_0_energy">   -845.31529701 </i>
   </energy>
  </scstep>
  <scstep>
   <time name="dav">  685.23  693.90</time>
   <time name="total">  685.23  693.90</time>
   <energy>
    <i name="e_fr_energy">   -845.31530776 </i>
    <i name="e_wo_entrp">   -845.31530776 </i>
    <i name="e_0_energy">   -845.31530776 </i>
   </energy>
  </scstep>
  <scstep>
   <time name="dav">  537.90  544.39</time>
   <time name="total">  537.90  544.39</time>
   <energy>
    <i name="alphaZ">     44.37407875 </i>
    <i name="ewald">  47722.25935403 </i>
    <i name="hartreedc"> -59712.20601981 </i>
    <i name="XCdc">   1332.25112585 </i>
    <i name="pawpsdc">  35530.62411589 </i>
    <i name="pawaedc"> -35599.42317997 </i>
    <i name="eentropy">     -0.00000000 </i>
    <i name="bandstr">  -4795.98958614 </i>
    <i name="atom">  14632.79480330 </i>
    <i name="e_fr_energy">   -845.31530810 </i>
    <i name="e_wo_entrp">   -845.31530810 </i>
    <i name="e_0_energy">   -845.31530810 </i>
   </energy>
  </scstep>
  <structure>
   <crystal>
    <varray name="basis" >
     <v>      29.51437148       0.00000000       0.00000000 </v>
     <v>     -14.75718574      25.56019548       0.00000000 </v>
     <v>       0.00000000       0.00000000      20.00000000 </v>
    </varray>
    <i name="volume">  15087.86208519 </i>
    <varray name="rec_basis" >
     <v>       0.03388180       0.01956167       0.00000000 </v>
     <v>       0.00000000       0.03912333       0.00000000 </v>
     <v>       0.00000000       0.00000000       0.05000000 </v>
    </varray>
   </crystal>
   <varray name="positions" >
    <v>       0.01956101       0.50978050       0.69414719 </v>
    <v>       0.38709056       0.69354528       0.49767793 </v>
    <v>       0.30645472       0.61290944       0.49767793 </v>
    <v>       0.30645472       0.69354528       0.49767793 </v>
    <v>       0.61291646       0.30645823       0.50220521 </v>
    <v>       0.69354177       0.38708354       0.50220521 </v>
    <v>       0.69354177       0.30645823       0.50220521 </v>
    <v>       0.49021950       0.50978050       0.69414719 </v>
    <v>       0.52803926       0.47196074       0.62615729 </v>
    <v>       0.49021950       0.98043899       0.69414719 </v>
    <v>       0.52803926       0.05607852       0.62615729 </v>
    <v>       0.94392148       0.47196074       0.62615729 </v>
    <v>       0.44987240       0.55012760       0.64446028 </v>
    <v>       0.44987240       0.89974480       0.64446028 </v>
    <v>       0.10025520       0.55012760       0.64446028 </v>
    <v>       0.02691925       0.51345963       0.57014304 </v>
    <v>       0.02888060       0.51444030       0.44892325 </v>
    <v>       0.05245963       0.52622982       0.63748262 </v>
    <v>       0.35904661       0.71809323       0.49782148 </v>
    <v>       0.35904661       0.64095339       0.49782148 </v>
    <v>       0.28190677       0.64095339       0.49782148 </v>
    <v>       0.38797560       0.61202440       0.49942981 </v>
    <v>       0.44291332       0.63907661       0.50085504 </v>
    <v>       0.47004712       0.61188524       0.50466646 </v>
    <v>       0.44293130       0.55706870       0.50767324 </v>
    <v>       0.38811476       0.52995288       0.50466646 </v>
    <v>       0.36092339       0.55708668       0.50085504 </v>
    <v>       0.38797560       0.77595121       0.49942981 </v>
    <v>       0.44291332       0.80383671       0.50085504 </v>
    <v>       0.47004712       0.85816188       0.50466646 </v>
    <v>       0.44293130       0.88586259       0.50767324 </v>
    <v>       0.38811476       0.85816188       0.50466646 </v>
    <v>       0.36092339       0.80383671       0.50085504 </v>
    <v>       0.22404879       0.61202440       0.49942981 </v>
    <v>       0.19616329       0.63907661       0.50085504 </v>
    <v>       0.14183812       0.61188524       0.50466646 </v>
    <v>       0.11413741       0.55706870       0.50767324 </v>
    <v>       0.14183812       0.52995288       0.50466646 </v>
    <v>       0.19616329       0.55708668       0.50085504 </v>
    <v>       0.64096387       0.28192775       0.50221227 </v>
    <v>       0.64096387       0.35903613       0.50221227 </v>
    <v>       0.71807225       0.35903613       0.50221227 </v>
    <v>       0.61200104       0.38799896       0.50259158 </v>
    <v>       0.55704327       0.36089294       0.50286530 </v>
    <v>       0.52984983       0.38817621       0.50355698 </v>
    <v>       0.55683217       0.44316783       0.50370293 </v>
    <v>       0.61182379       0.47015017       0.50355698 </v>
    <v>       0.63910706       0.44295673       0.50286530 </v>
    <v>       0.61200104       0.22400208       0.50259158 </v>
    <v>       0.55704327       0.19615033       0.50286530 </v>
    <v>       0.52984983       0.14167363       0.50355698 </v>
    <v>       0.55683217       0.11366434       0.50370293 </v>
    <v>       0.61182379       0.14167363       0.50355698 </v>
    <v>       0.63910706       0.19615033       0.50286530 </v>
    <v>       0.77599792       0.38799896       0.50259158 </v>
    <v>       0.80384967       0.36089294       0.50286530 </v>
    <v>       0.85832637       0.38817621       0.50355698 </v>
    <v>       0.88633566       0.44316783       0.50370293 </v>
    <v>       0.85832637       0.47015017       0.50355698 </v>
    <v>       0.80384967       0.44295673       0.50286530 </v>
    <v>       0.52772097       0.47227903       0.50496667 </v>
    <v>       0.51418253       0.48581747       0.56647900 </v>
    <v>       0.48654037       0.51345963       0.57014304 </v>
    <v>       0.47207992       0.52792008       0.50973853 </v>
    <v>       0.47377018       0.52622982       0.63748262 </v>
    <v>       0.51533326       0.48466674       0.68605998 </v>
    <v>       0.52772097       0.05544193       0.50496667 </v>
    <v>       0.51418253       0.02836506       0.56647900 </v>
    <v>       0.48654037       0.97308075       0.57014304 </v>
    <v>       0.47207992       0.94415985       0.50973853 </v>
    <v>       0.47377018       0.94754037       0.63748262 </v>
    <v>       0.51533326       0.03066652       0.68605998 </v>
    <v>       0.94455807       0.47227903       0.50496667 </v>
    <v>       0.97163494       0.48581747       0.56647900 </v>
    <v>       0.05584015       0.52792008       0.50973853 </v>
    <v>       0.96933348       0.48466674       0.68605998 </v>
    <v>       0.48555970       0.51444030       0.44892325 </v>
    <v>       0.51291990       0.48708010       0.44653026 </v>
    <v>       0.48555970       0.97111940       0.44892325 </v>
    <v>       0.51291990       0.02583980       0.44653026 </v>
    <v>       0.97416020       0.48708010       0.44653026 </v>
    <v>       0.05128528       0.52564264       0.40251838 </v>
    <v>       0.51270210       0.87949525       0.50662601 </v>
    <v>       0.46376354       0.78208445       0.49953782 </v>
    <v>       0.36679316       0.87949525       0.50662601 </v>
    <v>       0.31832091       0.78208445       0.49953782 </v>
    <v>       0.21791555       0.68167909       0.49953782 </v>
    <v>       0.12050475       0.63320684       0.50662601 </v>
    <v>       0.21791555       0.53623646       0.49953782 </v>
    <v>       0.12050475       0.48729790       0.50662601 </v>
    <v>       0.31832091       0.53623646       0.49953782 </v>
    <v>       0.36679316       0.48729790       0.50662601 </v>
    <v>       0.51270210       0.63320684       0.50662601 </v>
    <v>       0.46376354       0.68167909       0.49953782 </v>
    <v>       0.48715637       0.12022173       0.50367405 </v>
    <v>       0.53617862       0.21789543       0.50248400 </v>
    <v>       0.63306536       0.12022173       0.50367405 </v>
    <v>       0.68171681       0.21789543       0.50248400 </v>
    <v>       0.78210457       0.31828319       0.50248400 </v>
    <v>       0.87977827       0.36693464       0.50367405 </v>
    <v>       0.78210457       0.46382138       0.50248400 </v>
    <v>       0.87977827       0.51284363       0.50367405 </v>
    <v>       0.68171681       0.46382138       0.50248400 </v>
    <v>       0.63306536       0.51284363       0.50367405 </v>
    <v>       0.48715637       0.36693464       0.50367405 </v>
    <v>       0.53617862       0.31828319       0.50248400 </v>
    <v>       0.52819909       0.47180091       0.72991009 </v>
    <v>       0.54791046       0.45208954       0.62443833 </v>
    <v>       0.52819909       0.05639819       0.72991009 </v>
    <v>       0.54791046       0.09582091       0.62443833 </v>
    <v>       0.94360181       0.47180091       0.72991009 </v>
    <v>       0.90417909       0.45208954       0.62443833 </v>
    <v>       0.52295199       0.47704801       0.39837620 </v>
    <v>       0.47435736       0.52564264       0.40251838 </v>
    <v>       0.52295199       0.04590399       0.39837620 </v>
    <v>       0.47435736       0.94871472       0.40251838 </v>
    <v>       0.95409601       0.47704801       0.39837620 </v>
   </varray>
  </structure>
  <varray name="forces" >
   <v>       0.00315770       0.00182310       0.00276360 </v>
   <v>      -0.00173322      -0.00100067       0.00197237 </v>
   <v>      -0.00000000       0.00200135       0.00197237 </v>
   <v>       0.00173322      -0.00100067       0.00197237 </v>
   <v>       0.00519607       0.00299995      -0.00001662 </v>
   <v>       0.00000000      -0.00599990      -0.00001662 </v>
   <v>      -0.00519607       0.00299995      -0.00001662 </v>
   <v>      -0.00315770       0.00182310       0.00276360 </v>
   <v>       0.00004726      -0.00002728      -0.00005922 </v>
   <v>       0.00000000      -0.00364620       0.00276360 </v>
   <v>       0.00000000       0.00005457      -0.00005922 </v>
   <v>      -0.00004726      -0.00002728      -0.00005922 </v>
   <v>       0.00610920      -0.00352715       0.00093694 </v>
   <v>      -0.00000000       0.00705429       0.00093694 </v>
   <v>      -0.00610920      -0.00352715       0.00093694 </v>
   <v>      -0.00358389      -0.00206916      -0.00313018 </v>
   <v>      -0.00178111      -0.00102832      -0.00112411 </v>
   <v>       0.00665169       0.00384036       0.00016795 </v>
   <v>       0.00000000      -0.00107290       0.00180486 </v>
   <v>      -0.00092916       0.00053645       0.00180486 </v>
   <v>       0.00092916       0.00053645       0.00180486 </v>
   <v>      -0.00064882       0.00037460       0.00179872 </v>
   <v>       0.00057221       0.00072595       0.00080252 </v>
   <v>       0.00175157      -0.00102628       0.00079349 </v>
   <v>       0.00109310      -0.00063110       0.00211306 </v>
   <v>       0.00176457      -0.00100376       0.00079349 </v>
   <v>      -0.00034259      -0.00085852       0.00080252 </v>
   <v>       0.00000000      -0.00074920       0.00179872 </v>
   <v>       0.00091480       0.00013257       0.00080252 </v>
   <v>      -0.00001300       0.00203005       0.00079349 </v>
   <v>      -0.00000000       0.00126220       0.00211306 </v>
   <v>       0.00001300       0.00203005       0.00079349 </v>
   <v>      -0.00091480       0.00013257       0.00080252 </v>
   <v>       0.00064882       0.00037460       0.00179872 </v>
   <v>      -0.00057221       0.00072595       0.00080252 </v>
   <v>      -0.00175157      -0.00102628       0.00079349 </v>
   <v>      -0.00109310      -0.00063110       0.00211306 </v>
   <v>      -0.00176457      -0.00100376       0.00079349 </v>
   <v>       0.00034259      -0.00085852       0.00080252 </v>
   <v>       0.00000000      -0.00051721       0.00278968 </v>
   <v>      -0.00044792       0.00025861       0.00278968 </v>
   <v>       0.00044792       0.00025861       0.00278968 </v>
   <v>       0.00081941      -0.00047309      -0.00056250 </v>
   <v>       0.00116549      -0.00044033       0.00069860 </v>
   <v>      -0.00005011      -0.00201365      -0.00149068 </v>
   <v>       0.00002117      -0.00001222       0.00070172 </v>
   <v>       0.00171882       0.00105022      -0.00149068 </v>
   <v>       0.00096409      -0.00078918       0.00069860 </v>
   <v>      -0.00000000       0.00094618      -0.00056250 </v>
   <v>       0.00020141       0.00122951       0.00069860 </v>
   <v>      -0.00176893       0.00096343      -0.00149068 </v>
   <v>      -0.00000000       0.00002445       0.00070172 </v>
   <v>       0.00176893       0.00096343      -0.00149068 </v>
   <v>      -0.00020141       0.00122951       0.00069860 </v>
   <v>      -0.00081941      -0.00047309      -0.00056250 </v>
   <v>      -0.00116549      -0.00044033       0.00069860 </v>
   <v>       0.00005011      -0.00201365      -0.00149068 </v>
   <v>      -0.00002117      -0.00001222       0.00070172 </v>
   <v>      -0.00171882       0.00105022      -0.00149068 </v>
   <v>      -0.00096409      -0.00078918       0.00069860 </v>
   <v>      -0.00262989       0.00151837      -0.00061101 </v>
   <v>       0.00102685      -0.00059285      -0.00209373 </v>
   <v>       0.00358389      -0.00206916      -0.00313018 </v>
   <v>      -0.00315281       0.00182028      -0.00308262 </v>
   <v>      -0.00665169       0.00384036       0.00016795 </v>
   <v>       0.00032476      -0.00018750      -0.00713923 </v>
   <v>       0.00000000      -0.00303674      -0.00061101 </v>
   <v>      -0.00000000       0.00118571      -0.00209373 </v>
   <v>      -0.00000000       0.00413832      -0.00313018 </v>
   <v>       0.00000000      -0.00364055      -0.00308262 </v>
   <v>       0.00000000      -0.00768071       0.00016795 </v>
   <v>      -0.00000000       0.00037500      -0.00713923 </v>
   <v>       0.00262989       0.00151837      -0.00061101 </v>
   <v>      -0.00102685      -0.00059285      -0.00209373 </v>
   <v>       0.00315281       0.00182028      -0.00308262 </v>
   <v>      -0.00032476      -0.00018750      -0.00713923 </v>
   <v>       0.00178111      -0.00102832      -0.00112411 </v>
   <v>      -0.00501486       0.00289533      -0.00144861 </v>
   <v>      -0.00000000       0.00205665      -0.00112411 </v>
   <v>       0.00000000      -0.00579066      -0.00144861 </v>
   <v>       0.00501486       0.00289533      -0.00144861 </v>
   <v>       0.00076072       0.00043920       0.00219260 </v>
   <v>       0.00227669       0.00031326       0.00260458 </v>
   <v>       0.00327970      -0.00132913       0.00131632 </v>
   <v>      -0.00227669       0.00031326       0.00260458 </v>
   <v>      -0.00327970      -0.00132913       0.00131632 </v>
   <v>      -0.00048879       0.00350487       0.00131632 </v>
   <v>      -0.00140964       0.00181504       0.00260458 </v>
   <v>       0.00279091      -0.00217574       0.00131632 </v>
   <v>       0.00086705      -0.00212830       0.00260458 </v>
   <v>      -0.00279091      -0.00217574       0.00131632 </v>
   <v>      -0.00086705      -0.00212830       0.00260458 </v>
   <v>       0.00140964       0.00181504       0.00260458 </v>
   <v>       0.00048879       0.00350487       0.00131632 </v>
   <v>      -0.00303573      -0.00058567      -0.00064576 </v>
   <v>      -0.00207734       0.00183650      -0.00022538 </v>
   <v>       0.00303573      -0.00058567      -0.00064576 </v>
   <v>       0.00207734       0.00183650      -0.00022538 </v>
   <v>      -0.00055179      -0.00271728      -0.00022538 </v>
   <v>       0.00202507      -0.00233619      -0.00064576 </v>
   <v>      -0.00262912       0.00088078      -0.00022538 </v>
   <v>      -0.00101066       0.00292186      -0.00064576 </v>
   <v>       0.00262912       0.00088078      -0.00022538 </v>
   <v>       0.00101066       0.00292186      -0.00064576 </v>
   <v>      -0.00202507      -0.00233619      -0.00064576 </v>
   <v>       0.00055179      -0.00271728      -0.00022538 </v>
   <v>       0.00298797      -0.00172511       0.00323383 </v>
   <v>       0.00388261      -0.00224163      -0.00488842 </v>
   <v>      -0.00000000       0.00345021       0.00323383 </v>
   <v>      -0.00000000       0.00448325      -0.00488842 </v>
   <v>      -0.00298797      -0.00172511       0.00323383 </v>
   <v>      -0.00388261      -0.00224163      -0.00488842 </v>
   <v>       0.00004741      -0.00002737      -0.00402645 </v>
   <v>      -0.00076072       0.00043920       0.00219260 </v>
   <v>      -0.00000000       0.00005474      -0.00402645 </v>
   <v>       0.00000000      -0.00087840       0.00219260 </v>
   <v>      -0.00004741      -0.00002737      -0.00402645 </v>
  </varray>
  <varray name="stress" >
   <v>       0.00688958      -0.00000000       0.00000000 </v>
   <v>      -0.00000000       0.00688958      -0.00000000 </v>
   <v>       0.00000000      -0.00000000      -0.12949344 </v>
  </varray>
  <energy>
   <i name="e_fr_energy">   -847.73999935 </i>
   <i name="e_wo_entrp">   -847.73999935 </i>
   <i name="e_0_energy">     -0.00000000 </i>
  </energy>
  <time name="totalsc"> 4845.88 4907.04</time>
  <eigenvalues>
   <array>
    <dimension dim="1">band</dimension>
    <dimension dim="2">kpoint</dimension>
    <dimension dim="3">spin</dimension>
    <field>eigene</field>
    <field>occ</field>
    <set>
     <set comment="spin 1">
      <set comment="kpoint 1">
       <r>  -25.8331    1.0000 </r>
       <r>  -25.4280    1.0000 </r>
       <r>  -25.4280    1.0000 </r>
       <r>  -25.4278    1.0000 </r>
       <r>  -24.8106    1.0000 </r>
       <r>  -24.8106    1.0000 </r>
       <r>  -24.8104    1.0000 </r>
       <r>  -24.6089    1.0000 </r>
       <r>  -22.9150    1.0000 </r>
       <r>  -22.9150    1.0000 </r>
       <r>  -22.2953    1.0000 </r>
       <r>  -22.2812    1.0000 </r>
       <r>  -22.2811    1.0000 </r>
       <r>  -21.8453    1.0000 </r>
       <r>  -21.7993    1.0000 </r>
       <r>  -21.7991    1.0000 </r>
       <r>  -21.7025    1.0000 </r>
       <r>  -21.7025    1.0000 </r>
       <r>  -21.4536    1.0000 </r>
       <r>  -21.4301    1.0000 </r>
       <r>  -21.4299    1.0000 </r>
       <r>  -20.7022    1.0000 </r>
       <r>  -20.6440    1.0000 </r>
       <r>  -20.6433    1.0000 </r>
       <r>  -19.8941    1.0000 </r>
       <r>  -19.8941    1.0000 </r>
       <r>  -19.8222    1.0000 </r>
       <r>  -19.0544    1.0000 </r>
       <r>  -19.0543    1.0000 </r>
       <r>  -19.0013    1.0000 </r>
       <r>  -18.9867    1.0000 </r>
       <r>  -18.9866    1.0000 </r>
       <r>  -18.9587    1.0000 </r>
       <r>  -18.8699    1.0000 </r>
       <r>  -18.8697    1.0000 </r>
       <r>  -18.7752    1.0000 </r>
       <r>  -18.0961    1.0000 </r>
       <r>  -18.0956    1.0000 </r>
       <r>  -17.8057    1.0000 </r>
       <r>  -17.7746    1.0000 </r>
       <r>  -17.7736    1.0000 </r>
       <r>  -17.7626    1.0000 </r>
       <r>  -17.1324    1.0000 </r>
       <r>  -17.1324    1.0000 </r>
       <r>  -16.4535    1.0000 </r>
       <r>  -16.4215    1.0000 </r>
       <r>  -16.4213    1.0000 </r>
       <r>  -16.2334    1.0000 </r>
       <r>  -16.2332    1.0000 </r>
       <r>  -16.1901    1.0000 </r>
       <r>  -15.7711    1.0000 </r>
       <r>  -15.6819    1.0000 </r>
       <r>  -15.6817    1.0000 </r>
       <r>  -15.6656    1.0000 </r>
       <r>  -15.4394    1.0000 </r>
       <r>  -15.4392    1.0000 </r>
       <r>  -15.2128    1.0000 </r>
       <r>  -15.2127    1.0000 </r>
       <r>  -15.0648    1.0000 </r>
       <r>  -14.6701    1.0000 </r>
       <r>  -14.6480    1.0000 </r>
       <r>  -14.6477    1.0000 </r>
       <r>  -14.5256    1.0000 </r>
       <r>  -14.2985    1.0000 </r>
       <r>  -14.2976    1.0000 </r>
       <r>  -13.8934    1.0000 </r>
       <r>  -13.8933    1.0000 </r>
       <r>  -13.7645    1.0000 </r>
       <r>  -13.7616    1.0000 </r>
       <r>  -13.6455    1.0000 </r>
       <r>  -13.6454    1.0000 </r>
       <r>  -13.6319    1.0000 </r>
       <r>  -13.2891    1.0000 </r>
       <r>  -13.2888    1.0000 </r>
       <r>  -13.2528    1.0000 </r>
       <r>  -12.9996    1.0000 </r>
       <r>  -12.9996    1.0000 </r>
       <r>  -12.8871    1.0000 </r>
       <r>  -12.5796    1.0000 </r>
       <r>  -12.5661    1.0000 </r>
       <r>  -12.3472    1.0000 </r>
       <r>  -12.3472    1.0000 </r>
       <r>  -11.7852    1.0000 </r>
       <r>  -11.7849    1.0000 </r>
       <r>  -11.6973    1.0000 </r>
       <r>  -11.6612    1.0000 </r>
       <r>  -11.6069    1.0000 </r>
       <r>  -11.6068    1.0000 </r>
       <r>  -11.4872    1.0000 </r>
       <r>  -11.4481    1.0000 </r>
       <r>  -11.4480    1.0000 </r>
       <r>  -11.4057    1.0000 </r>
       <r>  -11.2331    1.0000 </r>
       <r>  -11.2330    1.0000 </r>
       <r>  -11.2294    1.0000 </r>
       <r>  -11.1208    1.0000 </r>
       <r>  -11.1052    1.0000 </r>
       <r>  -11.1052    1.0000 </r>
       <r>  -10.9952    1.0000 </r>
       <r>  -10.9950    1.0000 </r>
       <r>  -10.9612    1.0000 </r>
       <r>  -10.8587    1.0000 </r>
       <r>  -10.8287    1.0000 </r>
       <r>  -10.8286    1.0000 </r>
       <r>  -10.6484    1.0000 </r>
       <r>  -10.6482    1.0000 </r>
       <r>  -10.5708    1.0000 </r>
       <r>  -10.5647    1.0000 </r>
       <r>  -10.5645    1.0000 </r>
       <r>  -10.4734    1.0000 </r>
       <r>  -10.3257    1.0000 </r>
       <r>  -10.3257    1.0000 </r>
       <r>  -10.2357    1.0000 </r>
       <r>  -10.2084    1.0000 </r>
       <r>   -9.9795    1.0000 </r>
       <r>   -9.9794    1.0000 </r>
       <r>   -9.9437    1.0000 </r>
       <r>   -9.9436    1.0000 </r>
       <r>   -9.9034    1.0000 </r>
       <r>   -9.5380    1.0000 </r>
       <r>   -9.5370    1.0000 </r>
       <r>   -9.5363    1.0000 </r>
       <r>   -9.4661    1.0000 </r>
       <r>   -9.3449    1.0000 </r>
       <r>   -9.3440    1.0000 </r>
       <r>   -9.3255    1.0000 </r>
       <r>   -9.2160    1.0000 </r>
       <r>   -9.2159    1.0000 </r>
       <r>   -9.1399    1.0000 </r>
       <r>   -9.1398    1.0000 </r>
       <r>   -9.1209    1.0000 </r>
       <r>   -9.1081    1.0000 </r>
       <r>   -9.1079    1.0000 </r>
       <r>   -9.0793    1.0000 </r>
       <r>   -9.0234    1.0000 </r>
       <r>   -8.9175    1.0000 </r>
       <r>   -8.9174    1.0000 </r>
       <r>   -8.8844    1.0000 </r>
       <r>   -8.8187    1.0000 </r>
       <r>   -8.6761    1.0000 </r>
       <r>   -8.6751    1.0000 </r>
       <r>   -8.6340    1.0000 </r>
       <r>   -8.6338    1.0000 </r>
       <r>   -8.5798    1.0000 </r>
       <r>   -8.5796    1.0000 </r>
       <r>   -8.5388    1.0000 </r>
       <r>   -8.4942    1.0000 </r>
       <r>   -8.4942    1.0000 </r>
       <r>   -8.1630    1.0000 </r>
       <r>   -7.9219    1.0000 </r>
       <r>   -7.8767    1.0000 </r>
       <r>   -7.7251    1.0000 </r>
       <r>   -7.7247    1.0000 </r>
       <r>   -7.5877    1.0000 </r>
       <r>   -7.5870    1.0000 </r>
       <r>   -7.4997    1.0000 </r>
       <r>   -7.3767    1.0000 </r>
       <r>   -7.3765    1.0000 </r>
       <r>   -7.1236    1.0000 </r>
       <r>   -7.1235    1.0000 </r>
       <r>   -7.1208    1.0000 </r>
       <r>   -6.8871    1.0000 </r>
       <r>   -6.8868    1.0000 </r>
       <r>   -6.8653    1.0000 </r>
       <r>   -6.7555    1.0000 </r>
       <r>   -6.6096    1.0000 </r>
       <r>   -6.6095    1.0000 </r>
       <r>   -6.4255    1.0000 </r>
       <r>   -6.4255    1.0000 </r>
       <r>   -6.3114    1.0000 </r>
       <r>   -6.2935    1.0000 </r>
       <r>   -6.2935    1.0000 </r>
       <r>   -6.0955    1.0000 </r>
       <r>   -6.0857    1.0000 </r>
       <r>   -6.0854    1.0000 </r>
       <r>   -5.7123    1.0000 </r>
       <r>   -5.7073    1.0000 </r>
       <r>   -5.7067    1.0000 </r>
       <r>   -5.6690    1.0000 </r>
       <r>   -5.5813    1.0000 </r>
       <r>   -5.5812    1.0000 </r>
       <r>   -5.5793    1.0000 </r>
       <r>   -5.5549    1.0000 </r>
       <r>   -5.5548    1.0000 </r>
       <r>   -5.1862    1.0000 </r>
       <r>   -5.1849    1.0000 </r>
       <r>   -4.8593    1.0000 </r>
       <r>   -4.8574    1.0000 </r>
       <r>   -4.8569    1.0000 </r>
       <r>   -3.2255    0.0000 </r>
       <r>   -3.2253    0.0000 </r>
       <r>   -2.1353    0.0000 </r>
       <r>   -2.1353    0.0000 </r>
       <r>   -2.1342    0.0000 </r>
       <r>   -2.1004    0.0000 </r>
       <r>   -2.0010    0.0000 </r>
       <r>   -2.0005    0.0000 </r>
       <r>   -1.9053    0.0000 </r>
       <r>   -1.8983    0.0000 </r>
       <r>   -1.8981    0.0000 </r>
       <r>   -1.5297    0.0000 </r>
       <r>   -1.5295    0.0000 </r>
       <r>   -1.5227    0.0000 </r>
       <r>   -0.9062    0.0000 </r>
       <r>   -0.8339    0.0000 </r>
       <r>   -0.7695    0.0000 </r>
       <r>   -0.7693    0.0000 </r>
       <r>   -0.7636    0.0000 </r>
       <r>   -0.7398    0.0000 </r>
       <r>   -0.7397    0.0000 </r>
       <r>   -0.6476    0.0000 </r>
       <r>   -0.6476    0.0000 </r>
       <r>   -0.4900    0.0000 </r>
       <r>   -0.4890    0.0000 </r>
       <r>   -0.4824    0.0000 </r>
       <r>   -0.2747    0.0000 </r>
       <r>   -0.1939    0.0000 </r>
       <r>   -0.1933    0.0000 </r>
       <r>   -0.0738    0.0000 </r>
       <r>   -0.0447    0.0000 </r>
       <r>   -0.0446    0.0000 </r>
       <r>    0.0395    0.0000 </r>
       <r>    0.1952    0.0000 </r>
       <r>    0.1959    0.0000 </r>
       <r>    0.2594    0.0000 </r>
       <r>    0.3022    0.0000 </r>
       <r>    0.3974    0.0000 </r>
       <r>    0.3977    0.0000 </r>
       <r>    0.4392    0.0000 </r>
       <r>    0.4547    0.0000 </r>
       <r>    0.4595    0.0000 </r>
       <r>    0.4599    0.0000 </r>
       <r>    0.4899    0.0000 </r>
       <r>    0.4899    0.0000 </r>
       <r>    0.5832    0.0000 </r>
       <r>    0.6063    0.0000 </r>
       <r>    0.6070    0.0000 </r>
       <r>    0.6519    0.0000 </r>
       <r>    0.7005    0.0000 </r>
       <r>    0.7037    0.0000 </r>
       <r>    0.7521    0.0000 </r>
       <r>    0.7553    0.0000 </r>
       <r>    0.8227    0.0000 </r>
       <r>    0.8290    0.0000 </r>
       <r>    0.8693    0.0000 </r>
       <r>    0.8823    0.0000 </r>
       <r>    0.8824    0.0000 </r>
       <r>    0.9351    0.0000 </r>
       <r>    0.9529    0.0000 </r>
       <r>    0.9902    0.0000 </r>
       <r>    0.9903    0.0000 </r>
       <r>    0.9969    0.0000 </r>
       <r>    1.0055    0.0000 </r>
       <r>    1.0092    0.0000 </r>
       <r>    1.0309    0.0000 </r>
       <r>    1.0324    0.0000 </r>
      </set>
      <set comment="kpoint 2">
       <r>  -25.8331    1.0000 </r>
       <r>  -25.4280    1.0000 </r>
       <r>  -25.4280    1.0000 </r>
       <r>  -25.4278    1.0000 </r>
       <r>  -24.8106    1.0000 </r>
       <r>  -24.8106    1.0000 </r>
       <r>  -24.8104    1.0000 </r>
       <r>  -24.6089    1.0000 </r>
       <r>  -22.9150    1.0000 </r>
       <r>  -22.9150    1.0000 </r>
       <r>  -22.2953    1.0000 </r>
       <r>  -22.2812    1.0000 </r>
       <r>  -22.2811    1.0000 </r>
       <r>  -21.8453    1.0000 </r>
       <r>  -21.7993    1.0000 </r>
       <r>  -21.7991    1.0000 </r>
       <r>  -21.7025    1.0000 </r>
       <r>  -21.7025    1.0000 </r>
       <r>  -21.4536    1.0000 </r>
       <r>  -21.4302    1.0000 </r>
       <r>  -21.4299    1.0000 </r>
       <r>  -20.7022    1.0000 </r>
       <r>  -20.6439    1.0000 </r>
       <r>  -20.6433    1.0000 </r>
       <r>  -19.8941    1.0000 </r>
       <r>  -19.8941    1.0000 </r>
       <r>  -19.8221    1.0000 </r>
       <r>  -19.0544    1.0000 </r>
       <r>  -19.0542    1.0000 </r>
       <r>  -19.0013    1.0000 </r>
       <r>  -18.9867    1.0000 </r>
       <r>  -18.9866    1.0000 </r>
       <r>  -18.9587    1.0000 </r>
       <r>  -18.8699    1.0000 </r>
       <r>  -18.8696    1.0000 </r>
       <r>  -18.7754    1.0000 </r>
       <r>  -18.0961    1.0000 </r>
       <r>  -18.0952    1.0000 </r>
       <r>  -17.8057    1.0000 </r>
       <r>  -17.7754    1.0000 </r>
       <r>  -17.7737    1.0000 </r>
       <r>  -17.7622    1.0000 </r>
       <r>  -17.1324    1.0000 </r>
       <r>  -17.1319    1.0000 </r>
       <r>  -16.4537    1.0000 </r>
       <r>  -16.4215    1.0000 </r>
       <r>  -16.4213    1.0000 </r>
       <r>  -16.2384    1.0000 </r>
       <r>  -16.2333    1.0000 </r>
       <r>  -16.1848    1.0000 </r>
       <r>  -15.7711    1.0000 </r>
       <r>  -15.6819    1.0000 </r>
       <r>  -15.6816    1.0000 </r>
       <r>  -15.6656    1.0000 </r>
       <r>  -15.4396    1.0000 </r>
       <r>  -15.4393    1.0000 </r>
       <r>  -15.2134    1.0000 </r>
       <r>  -15.2128    1.0000 </r>
       <r>  -15.0643    1.0000 </r>
       <r>  -14.6706    1.0000 </r>
       <r>  -14.6478    1.0000 </r>
       <r>  -14.6473    1.0000 </r>
       <r>  -14.5256    1.0000 </r>
       <r>  -14.2985    1.0000 </r>
       <r>  -14.2976    1.0000 </r>
       <r>  -13.8934    1.0000 </r>
       <r>  -13.8933    1.0000 </r>
       <r>  -13.7643    1.0000 </r>
       <r>  -13.7616    1.0000 </r>
       <r>  -13.6456    1.0000 </r>
       <r>  -13.6454    1.0000 </r>
       <r>  -13.6319    1.0000 </r>
       <r>  -13.2913    1.0000 </r>
       <r>  -13.2890    1.0000 </r>
       <r>  -13.2505    1.0000 </r>
       <r>  -12.9997    1.0000 </r>
       <r>  -12.9996    1.0000 </r>
       <r>  -12.8871    1.0000 </r>
       <r>  -12.5796    1.0000 </r>
       <r>  -12.5662    1.0000 </r>
       <r>  -12.3472    1.0000 </r>
       <r>  -12.3468    1.0000 </r>
       <r>  -11.7859    1.0000 </r>
       <r>  -11.7851    1.0000 </r>
       <r>  -11.6973    1.0000 </r>
       <r>  -11.6613    1.0000 </r>
       <r>  -11.6068    1.0000 </r>
       <r>  -11.6063    1.0000 </r>
       <r>  -11.4873    1.0000 </r>
       <r>  -11.4481    1.0000 </r>
       <r>  -11.4478    1.0000 </r>
       <r>  -11.4057    1.0000 </r>
       <r>  -11.2349    1.0000 </r>
       <r>  -11.2330    1.0000 </r>
       <r>  -11.2277    1.0000 </r>
       <r>  -11.1213    1.0000 </r>
       <r>  -11.1052    1.0000 </r>
       <r>  -11.1045    1.0000 </r>
       <r>  -10.9952    1.0000 </r>
       <r>  -10.9950    1.0000 </r>
       <r>  -10.9613    1.0000 </r>
       <r>  -10.8589    1.0000 </r>
       <r>  -10.8286    1.0000 </r>
       <r>  -10.8283    1.0000 </r>
       <r>  -10.6484    1.0000 </r>
       <r>  -10.6483    1.0000 </r>
       <r>  -10.5708    1.0000 </r>
       <r>  -10.5648    1.0000 </r>
       <r>  -10.5643    1.0000 </r>
       <r>  -10.4734    1.0000 </r>
       <r>  -10.3263    1.0000 </r>
       <r>  -10.3257    1.0000 </r>
       <r>  -10.2352    1.0000 </r>
       <r>  -10.2084    1.0000 </r>
       <r>   -9.9805    1.0000 </r>
       <r>   -9.9795    1.0000 </r>
       <r>   -9.9456    1.0000 </r>
       <r>   -9.9436    1.0000 </r>
       <r>   -9.9001    1.0000 </r>
       <r>   -9.5382    1.0000 </r>
       <r>   -9.5371    1.0000 </r>
       <r>   -9.5360    1.0000 </r>
       <r>   -9.4661    1.0000 </r>
       <r>   -9.3449    1.0000 </r>
       <r>   -9.3440    1.0000 </r>
       <r>   -9.3256    1.0000 </r>
       <r>   -9.2161    1.0000 </r>
       <r>   -9.2160    1.0000 </r>
       <r>   -9.1400    1.0000 </r>
       <r>   -9.1399    1.0000 </r>
       <r>   -9.1209    1.0000 </r>
       <r>   -9.1084    1.0000 </r>
       <r>   -9.1080    1.0000 </r>
       <r>   -9.0793    1.0000 </r>
       <r>   -9.0233    1.0000 </r>
       <r>   -8.9174    1.0000 </r>
       <r>   -8.9173    1.0000 </r>
       <r>   -8.8844    1.0000 </r>
       <r>   -8.8182    1.0000 </r>
       <r>   -8.6761    1.0000 </r>
       <r>   -8.6751    1.0000 </r>
       <r>   -8.6341    1.0000 </r>
       <r>   -8.6338    1.0000 </r>
[...]
       <r>   -21.4604     1.2309    36.1213 </r>
       <r>   -21.3618    40.5714    42.0000 </r>
       <r>   -21.2633     0.0000    42.0000 </r>
       <r>   -21.1647     0.0000    42.0000 </r>
       <r>   -21.0661     0.0000    42.0000 </r>
       <r>   -20.9676     0.0000    42.0000 </r>
       <r>   -20.8690     0.0000    42.0000 </r>
       <r>   -20.7705     0.0000    42.0000 </r>
       <r>   -20.6719    20.2922    44.0001 </r>
       <r>   -20.5733    40.5815    48.0000 </r>
       <r>   -20.4748     0.0000    48.0000 </r>
       <r>   -20.3762     0.0000    48.0000 </r>
       <r>   -20.2776     0.0000    48.0000 </r>
       <r>   -20.1791     0.0000    48.0000 </r>
       <r>   -20.0805     0.0000    48.0000 </r>
       <r>   -19.9819     0.0000    48.0000 </r>
       <r>   -19.8834    38.6689    51.8114 </r>
       <r>   -19.7848    20.2913    54.0000 </r>
       <r>   -19.6862     0.0000    54.0000 </r>
       <r>   -19.5877     0.0000    54.0000 </r>
       <r>   -19.4891     0.0000    54.0000 </r>
       <r>   -19.3905     0.0000    54.0000 </r>
       <r>   -19.2920     0.0000    54.0000 </r>
       <r>   -19.1934     0.0000    54.0000 </r>
       <r>   -19.0949     0.0000    54.0000 </r>
       <r>   -18.9963    62.1738    60.1281 </r>
       <r>   -18.8977    20.2922    66.0001 </r>
       <r>   -18.7992    50.3118    70.9591 </r>
       <r>   -18.7006     3.7166    72.0000 </r>
       <r>   -18.6020     0.0000    72.0000 </r>
       <r>   -18.5035     0.0000    72.0000 </r>
       <r>   -18.4049     0.0000    72.0000 </r>
       <r>   -18.3063     0.0000    72.0000 </r>
       <r>   -18.2078     0.0000    72.0000 </r>
       <r>   -18.1092     0.6751    72.0665 </r>
       <r>   -18.0106     9.5675    75.1766 </r>
       <r>   -17.9121     4.9604    76.1559 </r>
       <r>   -17.8135    11.8882    77.7387 </r>
       <r>   -17.7149    44.3020    84.0000 </r>
       <r>   -17.6164     0.0000    84.0000 </r>
       <r>   -17.5178     0.0000    84.0000 </r>
       <r>   -17.4193     0.0000    84.0000 </r>
       <r>   -17.3207     0.0000    84.0000 </r>
       <r>   -17.2221     0.0000    84.0000 </r>
       <r>   -17.1236    21.0471    86.0745 </r>
       <r>   -17.0250    14.5416    88.0000 </r>
       <r>   -16.9264     0.0000    88.0000 </r>
       <r>   -16.8279     0.0000    88.0000 </r>
       <r>   -16.7293     0.0000    88.0000 </r>
       <r>   -16.6307     0.0000    88.0000 </r>
       <r>   -16.5322     0.0353    88.0035 </r>
       <r>   -16.4336    18.9204    90.1655 </r>
       <r>   -16.3350    14.2143    95.4010 </r>
       <r>   -16.2365    10.9480    96.5792 </r>
       <r>   -16.1379     3.1222    98.3077 </r>
       <r>   -16.0394     4.1474    98.7755 </r>
       <r>   -15.9408    11.1588   100.0000 </r>
       <r>   -15.8422     0.0000   100.0000 </r>
       <r>   -15.7437    20.2907   101.9999 </r>
       <r>   -15.6451    50.5538   106.9828 </r>
       <r>   -15.5465     3.1201   108.0080 </r>
       <r>   -15.4480    16.0279   109.9134 </r>
       <r>   -15.3494     0.0000   112.0000 </r>
       <r>   -15.2508    13.2417   113.3052 </r>
       <r>   -15.1523    24.6868   116.0000 </r>
       <r>   -15.0537     3.5929   116.3541 </r>
       <r>   -14.9551    13.1877   118.0000 </r>
       <r>   -14.8566     0.0000   118.0000 </r>
       <r>   -14.7580     0.0000   118.0000 </r>
       <r>   -14.6594    21.2393   120.0934 </r>
       <r>   -14.5609    17.5840   124.0000 </r>
       <r>   -14.4623    20.2913   126.0000 </r>
       <r>   -14.3638     0.0000   126.0000 </r>
       <r>   -14.2652    40.5825   130.0000 </r>
       <r>   -14.1666     0.0000   130.0000 </r>
       <r>   -14.0681     0.0000   130.0000 </r>
       <r>   -13.9695     0.0000   130.0000 </r>
       <r>   -13.8709    40.5638   133.9982 </r>
       <r>   -13.7724     1.6586   134.1635 </r>
       <r>   -13.6738    18.5045   138.3241 </r>
       <r>   -13.5752    47.3421   144.0000 </r>
       <r>   -13.4767     0.0000   144.0000 </r>
       <r>   -13.3781    12.1028   145.1929 </r>
       <r>   -13.2795    24.7458   147.8058 </r>
       <r>   -13.1810     7.1128   148.7011 </r>
       <r>   -13.0824    10.8198   150.0000 </r>
       <r>   -12.9838    40.2647   153.9687 </r>
       <r>   -12.8853    12.1243   155.1950 </r>
       <r>   -12.7867     0.0000   156.0000 </r>
       <r>   -12.6882     0.0000   156.0000 </r>
       <r>   -12.5896     2.9387   156.2897 </r>
       <r>   -12.4910     5.0657   160.0000 </r>
       <r>   -12.3925     0.0000   160.0000 </r>
       <r>   -12.2939    29.4990   162.9076 </r>
       <r>   -12.1953     3.3760   164.0000 </r>
       <r>   -12.0968     0.0000   164.0000 </r>
       <r>   -11.9982     0.0000   164.0000 </r>
       <r>   -11.8996     5.8968   164.5812 </r>
       <r>   -11.8011     7.8343   165.8390 </r>
       <r>   -11.7025     3.8738   168.3818 </r>
       <r>   -11.6039    30.3128   172.9878 </r>
       <r>   -11.5054    15.4795   176.0593 </r>
       <r>   -11.4068    45.7780   182.5121 </r>
       <r>   -11.3083     0.0045   184.0004 </r>
       <r>   -11.2097    49.0659   188.8366 </r>
       <r>   -11.1111    22.7884   192.2461 </r>
       <r>   -11.0126    17.1751   196.0597 </r>
       <r>   -10.9140    27.3697   202.0000 </r>
       <r>   -10.8154    44.3004   206.3665 </r>
       <r>   -10.7169    13.9936   208.0460 </r>
       <r>   -10.6183    36.1826   212.0000 </r>
       <r>   -10.5197    60.8731   217.9999 </r>
       <r>   -10.4212    20.2913   220.0000 </r>
       <r>   -10.3226    34.9909   223.4489 </r>
       <r>   -10.2240     3.5564   224.3505 </r>
       <r>   -10.1255    15.7295   228.1172 </r>
       <r>   -10.0269     9.9305   229.5126 </r>
       <r>    -9.9283    64.2588   235.9670 </r>
       <r>    -9.8298     4.8526   236.4783 </r>
       <r>    -9.7312     6.7863   237.2356 </r>
       <r>    -9.6327     0.0000   238.0000 </r>
       <r>    -9.5341    41.7061   242.1107 </r>
       <r>    -9.4355    20.2911   246.0000 </r>
       <r>    -9.3370    42.6474   250.2035 </r>
       <r>    -9.2384    11.2131   253.1052 </r>
       <r>    -9.1398    51.6619   258.9963 </r>
       <r>    -9.0413    65.8931   268.0026 </r>
       <r>    -8.9427    18.2479   270.0001 </r>
       <r>    -8.8441    60.8727   276.0000 </r>
       <r>    -8.7456    10.1060   276.9961 </r>
       <r>    -8.6470    47.3930   282.3719 </r>
       <r>    -8.5484    48.7801   290.2086 </r>
       <r>    -8.4499    40.5799   296.0000 </r>
       <r>    -8.3513     0.0000   296.0000 </r>
       <r>    -8.2527     0.0000   296.0000 </r>
       <r>    -8.1542    18.0721   297.7813 </r>
       <r>    -8.0556     0.0000   298.0000 </r>
       <r>    -7.9571     0.0000   298.0000 </r>
       <r>    -7.8585    40.4696   301.9889 </r>
       <r>    -7.7599     0.0000   302.0000 </r>
       <r>    -7.6614    40.5825   306.0000 </r>
       <r>    -7.5628    40.5714   309.9989 </r>
       <r>    -7.4642    20.2913   312.0000 </r>
       <r>    -7.3657    38.2066   315.7658 </r>
       <r>    -7.2671     0.0000   316.0000 </r>
       <r>    -7.1685     0.0000   316.0000 </r>
       <r>    -7.0700    60.8738   322.0000 </r>
       <r>    -6.9714     0.0000   322.0000 </r>
       <r>    -6.8728    42.6118   326.2000 </r>
       <r>    -6.7743     0.0504   328.0050 </r>
       <r>    -6.6757    20.2408   330.0000 </r>
       <r>    -6.5772    40.5825   334.0000 </r>
       <r>    -6.4786     0.0000   334.0000 </r>
       <r>    -6.3800    40.5825   338.0000 </r>
       <r>    -6.2815    56.7722   343.5957 </r>
       <r>    -6.1829     0.0000   344.0000 </r>
       <r>    -6.0843    42.1955   348.1590 </r>
       <r>    -5.9858     0.0000   350.0000 </r>
       <r>    -5.8872     0.0000   350.0000 </r>
       <r>    -5.7886     0.0000   350.0000 </r>
       <r>    -5.6901    60.5557   355.9687 </r>
       <r>    -5.5915    24.2082   358.3890 </r>
       <r>    -5.4929    40.5825   368.0000 </r>
       <r>    -5.3944     0.0000   368.0000 </r>
       <r>    -5.2958     0.0000   368.0000 </r>
       <r>    -5.1972     2.0318   368.2003 </r>
       <r>    -5.0987     0.0000   372.0000 </r>
       <r>    -5.0001     0.0000   372.0000 </r>
       <r>    -4.9016     0.0000   372.0000 </r>
       <r>    -4.8030    60.8738   378.0000 </r>
       <r>    -4.7044     0.0000   378.0000 </r>
       <r>    -4.6059     0.0000   378.0000 </r>
       <r>    -4.5073     0.0000   378.0000 </r>
       <r>    -4.4087     0.0000   378.0000 </r>
       <r>    -4.3102     0.0000   378.0000 </r>
       <r>    -4.2116     0.0000   378.0000 </r>
       <r>    -4.1130     0.0000   378.0000 </r>
       <r>    -4.0145     0.0000   378.0000 </r>
       <r>    -3.9159     0.0000   378.0000 </r>
       <r>    -3.8173     0.0000   378.0000 </r>
       <r>    -3.7188     0.0000   378.0000 </r>
       <r>    -3.6202     0.0000   378.0000 </r>
       <r>    -3.5216     0.0000   378.0000 </r>
       <r>    -3.4231     0.0000   378.0000 </r>
       <r>    -3.3245     0.0000   378.0000 </r>
       <r>    -3.2260    18.9874   379.8715 </r>
       <r>    -3.1274     0.0000   382.0000 </r>
       <r>    -3.0288     0.0000   382.0000 </r>
       <r>    -2.9303     0.0000   382.0000 </r>
       <r>    -2.8317     0.0000   382.0000 </r>
       <r>    -2.7331     0.0000   382.0000 </r>
       <r>    -2.6346     0.0000   382.0000 </r>
       <r>    -2.5360     0.0000   382.0000 </r>
       <r>    -2.4374     0.0000   382.0000 </r>
       <r>    -2.3389     0.0000   382.0000 </r>
       <r>    -2.2403     0.0000   382.0000 </r>
       <r>    -2.1417    10.2401   383.0093 </r>
       <r>    -2.0432    20.2913   390.0000 </r>
       <r>    -1.9446    40.5825   394.0000 </r>
       <r>    -1.8461    60.8738   400.0000 </r>
       <r>    -1.7475     0.0000   400.0000 </r>
       <r>    -1.6489     0.0000   400.0000 </r>
       <r>    -1.5504     0.0831   400.0082 </r>
       <r>    -1.4518    60.7907   406.0000 </r>
       <r>    -1.3532     0.0000   406.0000 </r>
       <r>    -1.2547     0.0000   406.0000 </r>
       <r>    -1.1561     0.0000   406.0000 </r>
       <r>    -1.0575     0.0000   406.0000 </r>
       <r>    -0.9590     0.0000   406.0000 </r>
       <r>    -0.8604    26.8100   408.6425 </r>
       <r>    -0.7618    52.6478   414.6895 </r>
       <r>    -0.6633    40.8887   420.0325 </r>
       <r>    -0.5647    14.5235   424.0000 </r>
       <r>    -0.4661    60.6400   429.9770 </r>
       <r>    -0.3676     0.0000   430.0000 </r>
       <r>    -0.2690    15.4077   431.5187 </r>
       <r>    -0.1705    40.5648   435.9983 </r>
       <r>    -0.0719     5.2322   436.5157 </r>
       <r>     0.0267    41.1993   442.0620 </r>
       <r>     0.1252     0.0000   444.0000 </r>
       <r>     0.2238    44.6693   448.4028 </r>
       <r>     0.3224    30.5643   452.3794 </r>
       <r>     0.4209    37.6585   456.3786 </r>
       <r>     0.5195    75.6308   464.8215 </r>
       <r>     0.6181    79.8696   473.5057 </r>
       <r>     0.7166    36.0603   478.6217 </r>
       <r>     0.8152    52.6860   484.5267 </r>
       <r>     0.9138    73.5354   495.5154 </r>
       <r>     1.0123   106.4960   507.1646 </r>
       <r>     1.1109    26.3610   512.0000 </r>
       <r>     1.2095     0.0000   512.0000 </r>
       <r>     1.3080     0.0000   512.0000 </r>
       <r>     1.4066     0.0000   512.0000 </r>
       <r>     1.5051     0.0000   512.0000 </r>
       <r>     1.6037     0.0000   512.0000 </r>
       <r>     1.7023     0.0000   512.0000 </r>
       <r>     1.8008     0.0000   512.0000 </r>
       <r>     1.8994     0.0000   512.0000 </r>
       <r>     1.9980     0.0000   512.0000 </r>
       <r>     2.0965     0.0000   512.0000 </r>
       <r>     2.1951     0.0000   512.0000 </r>
       <r>     2.2937     0.0000   512.0000 </r>
       <r>     2.3922     0.0000   512.0000 </r>
      </set>
     </set>
    </array>
   </total>
  </dos>
 </calculation>
 <structure name="finalpos" >
  <crystal>
   <varray name="basis" >
    <v>      29.51437148       0.00000000       0.00000000 </v>
    <v>     -14.75718574      25.56019548       0.00000000 </v>
    <v>       0.00000000       0.00000000      20.00000000 </v>
   </varray>
   <i name="volume">  15087.86208519 </i>
   <varray name="rec_basis" >
    <v>       0.03388180       0.01956167       0.00000000 </v>
    <v>       0.00000000       0.03912333       0.00000000 </v>
    <v>       0.00000000       0.00000000       0.05000000 </v>
   </varray>
  </crystal>
  <varray name="positions" >
   <v>       0.01956101       0.50978050       0.69414719 </v>
   <v>       0.38709056       0.69354528       0.49767793 </v>
   <v>       0.30645472       0.61290944       0.49767793 </v>
   <v>       0.30645472       0.69354528       0.49767793 </v>
   <v>       0.61291646       0.30645823       0.50220521 </v>
   <v>       0.69354177       0.38708354       0.50220521 </v>
   <v>       0.69354177       0.30645823       0.50220521 </v>
   <v>       0.49021950       0.50978050       0.69414719 </v>
   <v>       0.52803926       0.47196074       0.62615729 </v>
   <v>       0.49021950       0.98043899       0.69414719 </v>
   <v>       0.52803926       0.05607852       0.62615729 </v>
   <v>       0.94392148       0.47196074       0.62615729 </v>
   <v>       0.44987240       0.55012760       0.64446028 </v>
   <v>       0.44987240       0.89974480       0.64446028 </v>
   <v>       0.10025520       0.55012760       0.64446028 </v>
   <v>       0.02691925       0.51345963       0.57014304 </v>
   <v>       0.02888060       0.51444030       0.44892325 </v>
   <v>       0.05245963       0.52622982       0.63748262 </v>
   <v>       0.35904661       0.71809323       0.49782148 </v>
   <v>       0.35904661       0.64095339       0.49782148 </v>
   <v>       0.28190677       0.64095339       0.49782148 </v>
   <v>       0.38797560       0.61202440       0.49942981 </v>
   <v>       0.44291332       0.63907661       0.50085504 </v>
   <v>       0.47004712       0.61188524       0.50466646 </v>
   <v>       0.44293130       0.55706870       0.50767324 </v>
   <v>       0.38811476       0.52995288       0.50466646 </v>
   <v>       0.36092339       0.55708668       0.50085504 </v>
   <v>       0.38797560       0.77595121       0.49942981 </v>
   <v>       0.44291332       0.80383671       0.50085504 </v>
   <v>       0.47004712       0.85816188       0.50466646 </v>
   <v>       0.44293130       0.88586259       0.50767324 </v>
   <v>       0.38811476       0.85816188       0.50466646 </v>
   <v>       0.36092339       0.80383671       0.50085504 </v>
   <v>       0.22404879       0.61202440       0.49942981 </v>
   <v>       0.19616329       0.63907661       0.50085504 </v>
   <v>       0.14183812       0.61188524       0.50466646 </v>
   <v>       0.11413741       0.55706870       0.50767324 </v>
   <v>       0.14183812       0.52995288       0.50466646 </v>
   <v>       0.19616329       0.55708668       0.50085504 </v>
   <v>       0.64096387       0.28192775       0.50221227 </v>
   <v>       0.64096387       0.35903613       0.50221227 </v>
   <v>       0.71807225       0.35903613       0.50221227 </v>
   <v>       0.61200104       0.38799896       0.50259158 </v>
   <v>       0.55704327       0.36089294       0.50286530 </v>
   <v>       0.52984983       0.38817621       0.50355698 </v>
   <v>       0.55683217       0.44316783       0.50370293 </v>
   <v>       0.61182379       0.47015017       0.50355698 </v>
   <v>       0.63910706       0.44295673       0.50286530 </v>
   <v>       0.61200104       0.22400208       0.50259158 </v>
   <v>       0.55704327       0.19615033       0.50286530 </v>
   <v>       0.52984983       0.14167363       0.50355698 </v>
   <v>       0.55683217       0.11366434       0.50370293 </v>
   <v>       0.61182379       0.14167363       0.50355698 </v>
   <v>       0.63910706       0.19615033       0.50286530 </v>
   <v>       0.77599792       0.38799896       0.50259158 </v>
   <v>       0.80384967       0.36089294       0.50286530 </v>
   <v>       0.85832637       0.38817621       0.50355698 </v>
   <v>       0.88633566       0.44316783       0.50370293 </v>
   <v>       0.85832637       0.47015017       0.50355698 </v>
   <v>       0.80384967       0.44295673       0.50286530 </v>
   <v>       0.52772097       0.47227903       0.50496667 </v>
   <v>       0.51418253       0.48581747       0.56647900 </v>
   <v>       0.48654037       0.51345963       0.57014304 </v>
   <v>       0.47207992       0.52792008       0.50973853 </v>
   <v>       0.47377018       0.52622982       0.63748262 </v>
   <v>       0.51533326       0.48466674       0.68605998 </v>
   <v>       0.52772097       0.05544193       0.50496667 </v>
   <v>       0.51418253       0.02836506       0.56647900 </v>
   <v>       0.48654037       0.97308075       0.57014304 </v>
   <v>       0.47207992       0.94415985       0.50973853 </v>
   <v>       0.47377018       0.94754037       0.63748262 </v>
   <v>       0.51533326       0.03066652       0.68605998 </v>
   <v>       0.94455807       0.47227903       0.50496667 </v>
   <v>       0.97163494       0.48581747       0.56647900 </v>
   <v>       0.05584015       0.52792008       0.50973853 </v>
   <v>       0.96933348       0.48466674       0.68605998 </v>
   <v>       0.48555970       0.51444030       0.44892325 </v>
   <v>       0.51291990       0.48708010       0.44653026 </v>
   <v>       0.48555970       0.97111940       0.44892325 </v>
   <v>       0.51291990       0.02583980       0.44653026 </v>
   <v>       0.97416020       0.48708010       0.44653026 </v>
   <v>       0.05128528       0.52564264       0.40251838 </v>
   <v>       0.51270210       0.87949525       0.50662601 </v>
   <v>       0.46376354       0.78208445       0.49953782 </v>
   <v>       0.36679316       0.87949525       0.50662601 </v>
   <v>       0.31832091       0.78208445       0.49953782 </v>
   <v>       0.21791555       0.68167909       0.49953782 </v>
   <v>       0.12050475       0.63320684       0.50662601 </v>
   <v>       0.21791555       0.53623646       0.49953782 </v>
   <v>       0.12050475       0.48729790       0.50662601 </v>
   <v>       0.31832091       0.53623646       0.49953782 </v>
   <v>       0.36679316       0.48729790       0.50662601 </v>
   <v>       0.51270210       0.63320684       0.50662601 </v>
   <v>       0.46376354       0.68167909       0.49953782 </v>
   <v>       0.48715637       0.12022173       0.50367405 </v>
   <v>       0.53617862       0.21789543       0.50248400 </v>
   <v>       0.63306536       0.12022173       0.50367405 </v>
   <v>       0.68171681       0.21789543       0.50248400 </v>
   <v>       0.78210457       0.31828319       0.50248400 </v>
   <v>       0.87977827       0.36693464       0.50367405 </v>
   <v>       0.78210457       0.46382138       0.50248400 </v>
   <v>       0.87977827       0.51284363       0.50367405 </v>
   <v>       0.68171681       0.46382138       0.50248400 </v>
   <v>       0.63306536       0.51284363       0.50367405 </v>
   <v>       0.48715637       0.36693464       0.50367405 </v>
   <v>       0.53617862       0.31828319       0.50248400 </v>
   <v>       0.52819909       0.47180091       0.72991009 </v>
   <v>       0.54791046       0.45208954       0.62443833 </v>
   <v>       0.52819909       0.05639819       0.72991009 </v>
   <v>       0.54791046       0.09582091       0.62443833 </v>
   <v>       0.94360181       0.47180091       0.72991009 </v>
   <v>       0.90417909       0.45208954       0.62443833 </v>
   <v>       0.52295199       0.47704801       0.39837620 </v>
   <v>       0.47435736       0.52564264       0.40251838 </v>
   <v>       0.52295199       0.04590399       0.39837620 </v>
   <v>       0.47435736       0.94871472       0.40251838 </v>
   <v>       0.95409601       0.47704801       0.39837620 </v>
  </varray>
 </structure>
</modeling>
