<?xml version="1.0" encoding="ISO-8859-1"?>
<modeling>
 <generator>
  <i name="program" type="string">vasp </i>
  <i name="version" type="string">5.4.4.18Apr17-6-g9f103f2a35  </i>
  <i name="subversion" type="string">(build Jun 07 2020 16:50:00) complex            parallel </i>
  <i name="platform" type="string">LinuxIFC </i>
  <i name="date" type="string">2023 02 17 </i>
  <i name="time" type="string">19:37:59 </i>
 </generator>
 <incar>
  <i type="string" name="SYSTEM">Simulation for cell shape cell volume r</i>
  <i type="int" name="ISTART">     1</i>
  <i type="string" name="PREC">high</i>
  <i type="string" name="ALGO">48</i>
  <i type="int" name="ICHARG">    11</i>
  <i type="int" name="NELM">   200</i>
  <i type="int" name="IBRION">    -1</i>
  <i name="EDIFF">      0.00001000</i>
  <i name="EDIFFG">     -0.01000000</i>
  <i type="int" name="NSW">     0</i>
  <i type="int" name="ISIF">     2</i>
  <i name="ENCUT">    500.00000000</i>
  <i name="POTIM">      0.30000000</i>
  <i type="string" name="LREAL">A</i>
  <i type="int" name="ISMEAR">     0</i>
  <i name="SIGMA">      0.01000000</i>
  <i type="int" name="NWRITE">     0</i>
  <i type="logical" name="LWAVE"> F  </i>
  <i type="logical" name="LCHARG"> F  </i>
  <v type="int" name="KPOINT_BSE">    -1     0     0     0</v>
  <i type="int" name="NELM">   200</i>
  <i type="string" name="GGA">PE</i>
 </incar>
 <structure name="primitive_cell" >
  <crystal>
   <varray name="basis" >
    <v>      22.18056069       0.01577447       0.00000000 </v>
    <v>     -11.07648793      19.23987901       0.00000000 </v>
    <v>       0.00000000       0.00000000      20.00000000 </v>
   </varray>
   <i name="volume">   8538.52059611 </i>
   <varray name="rec_basis" >
    <v>       0.04506607       0.02594475       0.00000000 </v>
    <v>      -0.00003695       0.05195411       0.00000000 </v>
    <v>       0.00000000       0.00000000       0.05000000 </v>
   </varray>
  </crystal>
  <varray name="positions" >
   <v>       0.27497582      -0.46251733      -0.47016657 </v>
   <v>       0.30105280      -0.40594437      -0.47024595 </v>
   <v>       0.26057883      -0.37297978      -0.47008195 </v>
   <v>       0.37365627      -0.36584731      -0.46961920 </v>
   <v>       0.35110817       0.49734596      -0.44628768 </v>
   <v>       0.16971036      -0.46470759      -0.48085998 </v>
   <v>       0.35690583      -0.48280913       0.46799846 </v>
   <v>       0.38763236      -0.46935861      -0.48527547 </v>
   <v>       0.18865976      -0.41407500      -0.46868150 </v>
   <v>       0.41481828      -0.39669164      -0.46794175 </v>
   <v>       0.29291273      -0.30044005      -0.47020538 </v>
   <v>       0.40652964      -0.29256943      -0.46962062 </v>
   <v>       0.46559774      -0.36514543      -0.47972085 </v>
   <v>       0.36625155      -0.26014643      -0.46955864 </v>
   <v>       0.41499439      -0.47678107      -0.36380471 </v>
   <v>       0.43014363      -0.42184146       0.39966318 </v>
   <v>       0.14298929      -0.38695628      -0.48612382 </v>
   <v>       0.44652482      -0.48468131      -0.49219120 </v>
   <v>       0.14730549      -0.42966426       0.39870449 </v>
   <v>       0.26238015      -0.27427486      -0.47007232 </v>
   <v>       0.46314183      -0.26211760      -0.46892343 </v>
   <v>       0.15988673      -0.35656615       0.46695494 </v>
   <v>       0.14622289      -0.35022022      -0.44733682 </v>
   <v>       0.43636863       0.48824845      -0.36797169 </v>
   <v>       0.06894663      -0.44596460      -0.49247975 </v>
   <v>       0.10931745      -0.41337968      -0.36446354 </v>
   <v>       0.39417831       0.43506136      -0.35696741 </v>
   <v>       0.45876572      -0.44830199       0.38548609 </v>
   <v>       0.46847139       0.49316695      -0.43587722 </v>
   <v>       0.47911281      -0.47607995       0.44522186 </v>
   <v>       0.09217794      -0.45900711       0.38507178 </v>
   <v>       0.42602057      -0.48991499       0.35000196 </v>
   <v>       0.08408089       0.49464050       0.35766423 </v>
   <v>       0.04465036      -0.47907496       0.44521810 </v>
   <v>       0.39696607      -0.18831282      -0.46782147 </v>
   <v>       0.02538895      -0.46769356      -0.43581052 </v>
   <v>       0.05293846      -0.43504692      -0.36819350 </v>
   <v>       0.47507233      -0.49748936      -0.32801670 </v>
   <v>      -0.49499509      -0.41064774       0.35759156 </v>
   <v>       0.36538164      -0.16909706      -0.47982653 </v>
   <v>       0.08227453      -0.42711635       0.34932139 </v>
   <v>       0.02917595      -0.47343371      -0.32793133 </v>
   <v>       0.48385739      -0.15975819       0.46887655 </v>
   <v>       0.46982727      -0.14278920      -0.48452244 </v>
   <v>      -0.47843878       0.47624829      -0.44287347 </v>
   <v>      -0.02510046       0.46746681       0.43890312 </v>
   <v>      -0.49713601      -0.14612793      -0.44523961 </v>
   <v>      -0.46773820      -0.49290940       0.43824158 </v>
   <v>       0.04155151      -0.39301371      -0.35727562 </v>
   <v>      -0.04440780       0.47894392      -0.44216481 </v>
   <v>       0.42346616      -0.14727777       0.40002301 </v>
   <v>      -0.06869237       0.44579450       0.49554953 </v>
   <v>      -0.44579489       0.48492657       0.49455476 </v>
   <v>      -0.04113316       0.39259340       0.36066623 </v>
   <v>       0.49551532       0.41079700      -0.35521786 </v>
   <v>       0.47580012      -0.10880723      -0.36301965 </v>
   <v>      -0.05260023       0.43461182       0.37135736 </v>
   <v>      -0.47433529       0.49756284       0.33039746 </v>
   <v>      -0.02884017       0.47287558       0.33100119 </v>
   <v>      -0.45821696       0.44827908      -0.38318332 </v>
   <v>      -0.43557746      -0.48788849       0.37034553 </v>
   <v>      -0.08271199       0.42659293      -0.34648813 </v>
   <v>       0.48493342      -0.06873349      -0.49128316 </v>
   <v>      -0.09200529       0.45903242      -0.38208282 </v>
   <v>      -0.42523038       0.48981074      -0.34772704 </v>
   <v>       0.44966581      -0.09225017       0.38609221 </v>
   <v>      -0.39364512      -0.43459478       0.35927957 </v>
   <v>      -0.08342176      -0.49457488      -0.35444035 </v>
   <v>       0.41187812      -0.08380688       0.35810183 </v>
   <v>       0.49159881      -0.08299201       0.35077022 </v>
   <v>      -0.14273817       0.38679064       0.48911307 </v>
   <v>      -0.48946802      -0.05251640      -0.36677046 </v>
   <v>      -0.10898366       0.41288136       0.36760368 </v>
   <v>       0.47683633      -0.04450343       0.44605851 </v>
   <v>      -0.14575425       0.34967302       0.45085405 </v>
   <v>      -0.42989006       0.42154156      -0.39746032 </v>
   <v>      -0.41387566       0.47741705       0.36623461 </v>
   <v>      -0.38689808       0.46961421       0.48757540 </v>
   <v>      -0.15999037       0.35687004      -0.46372563 </v>
   <v>      -0.46489367       0.36557499       0.48135039 </v>
   <v>      -0.49370499      -0.02504189      -0.43474754 </v>
   <v>      -0.14712151       0.43031641      -0.39586343 </v>
   <v>      -0.43626366      -0.04134144      -0.35507377 </v>
   <v>       0.49545405      -0.02854332      -0.32700581 </v>
   <v>      -0.35644488       0.48250813      -0.46556087 </v>
   <v>      -0.35015782      -0.49669279       0.44892095 </v>
   <v>      -0.41411795       0.39708566       0.46949075 </v>
   <v>      -0.16926793       0.46456124       0.48233694 </v>
   <v>      -0.18823370       0.41381951       0.47056393 </v>
   <v>       0.49353830       0.02533852       0.43922495 </v>
   <v>      -0.47694837       0.04482970      -0.44159034 </v>
   <v>      -0.49630192       0.02856955       0.33141157 </v>
   <v>      -0.48495191       0.06908343       0.49572724 </v>
   <v>      -0.37309418       0.36606265       0.47144128 </v>
   <v>      -0.46273246       0.26243000       0.47166302 </v>
   <v>      -0.26215413       0.27414054       0.47314191 </v>
   <v>       0.48901153       0.05273328       0.37130871 </v>
   <v>       0.43577744       0.04169607       0.35998858 </v>
   <v>      -0.26016731       0.37289339       0.47212124 </v>
   <v>      -0.41242961       0.08382574      -0.35328216 </v>
   <v>      -0.44988037       0.09252818      -0.38157460 </v>
   <v>      -0.49193506       0.08352428      -0.34651076 </v>
   <v>      -0.40610248       0.29278061       0.47201008 </v>
   <v>      -0.27428840       0.46259876       0.47128994 </v>
   <v>      -0.29263943       0.30035189       0.47284194 </v>
   <v>      -0.30048389       0.40601672       0.47184751 </v>
   <v>      -0.47613068       0.10898758       0.36741396 </v>
   <v>      -0.46956148       0.14321130       0.48874956 </v>
   <v>      -0.42334123       0.14756884      -0.39549565 </v>
   <v>       0.49702171       0.14645724       0.44983319 </v>
   <v>      -0.48279216       0.16071728      -0.46453903 </v>
   <v>      -0.36530368       0.16923062       0.48378000 </v>
   <v>      -0.36597971       0.26018875       0.47230244 </v>
   <v>      -0.39686552       0.18829516       0.47106295 </v>
  </varray>
 </structure>
 <varray name="primitive_index" >
  <v type="int" >        1 </v>
  <v type="int" >       64 </v>
  <v type="int" >       63 </v>
  <v type="int" >       65 </v>
  <v type="int" >       52 </v>
  <v type="int" >        6 </v>
  <v type="int" >       51 </v>
  <v type="int" >      102 </v>
  <v type="int" >      111 </v>
  <v type="int" >      110 </v>
  <v type="int" >       62 </v>
  <v type="int" >       66 </v>
  <v type="int" >        5 </v>
  <v type="int" >       61 </v>
  <v type="int" >       24 </v>
  <v type="int" >       48 </v>
  <v type="int" >      108 </v>
  <v type="int" >       97 </v>
  <v type="int" >       56 </v>
  <v type="int" >        3 </v>
  <v type="int" >        2 </v>
  <v type="int" >       59 </v>
  <v type="int" >       60 </v>
  <v type="int" >       83 </v>
  <v type="int" >      103 </v>
  <v type="int" >       32 </v>
  <v type="int" >       25 </v>
  <v type="int" >      101 </v>
  <v type="int" >       81 </v>
  <v type="int" >       98 </v>
  <v type="int" >      107 </v>
  <v type="int" >       50 </v>
  <v type="int" >       57 </v>
  <v type="int" >      104 </v>
  <v type="int" >      109 </v>
  <v type="int" >       87 </v>
  <v type="int" >       89 </v>
  <v type="int" >       26 </v>
  <v type="int" >       49 </v>
  <v type="int" >        4 </v>
  <v type="int" >       58 </v>
  <v type="int" >       34 </v>
  <v type="int" >       43 </v>
  <v type="int" >       96 </v>
  <v type="int" >       80 </v>
  <v type="int" >      105 </v>
  <v type="int" >       44 </v>
  <v type="int" >       99 </v>
  <v type="int" >       33 </v>
  <v type="int" >       86 </v>
  <v type="int" >       40 </v>
  <v type="int" >       85 </v>
  <v type="int" >       79 </v>
  <v type="int" >       53 </v>
  <v type="int" >       23 </v>
  <v type="int" >       16 </v>
  <v type="int" >      106 </v>
  <v type="int" >       47 </v>
  <v type="int" >       55 </v>
  <v type="int" >       82 </v>
  <v type="int" >      100 </v>
  <v type="int" >       30 </v>
  <v type="int" >       91 </v>
  <v type="int" >       88 </v>
  <v type="int" >       22 </v>
  <v type="int" >       95 </v>
  <v type="int" >       45 </v>
  <v type="int" >       31 </v>
  <v type="int" >       41 </v>
  <v type="int" >       42 </v>
  <v type="int" >       90 </v>
  <v type="int" >       77 </v>
  <v type="int" >       54 </v>
  <v type="int" >       92 </v>
  <v type="int" >       35 </v>
  <v type="int" >       21 </v>
  <v type="int" >       46 </v>
  <v type="int" >       84 </v>
  <v type="int" >       36 </v>
  <v type="int" >       11 </v>
  <v type="int" >       75 </v>
  <v type="int" >       29 </v>
  <v type="int" >       17 </v>
  <v type="int" >       18 </v>
  <v type="int" >       28 </v>
  <v type="int" >       27 </v>
  <v type="int" >      113 </v>
  <v type="int" >       12 </v>
  <v type="int" >      114 </v>
  <v type="int" >       93 </v>
  <v type="int" >       74 </v>
  <v type="int" >       39 </v>
  <v type="int" >       73 </v>
  <v type="int" >       71 </v>
  <v type="int" >        8 </v>
  <v type="int" >        9 </v>
  <v type="int" >       94 </v>
  <v type="int" >       37 </v>
  <v type="int" >       69 </v>
  <v type="int" >       15 </v>
  <v type="int" >       76 </v>
  <v type="int" >       14 </v>
  <v type="int" >       72 </v>
  <v type="int" >        7 </v>
  <v type="int" >       68 </v>
  <v type="int" >       70 </v>
  <v type="int" >       38 </v>
  <v type="int" >       78 </v>
  <v type="int" >       13 </v>
  <v type="int" >       19 </v>
  <v type="int" >       20 </v>
  <v type="int" >       10 </v>
  <v type="int" >       67 </v>
  <v type="int" >      112 </v>
 </varray>
 <kpoints>
  <generation param="listgenerated">
   <i name="divisions" type="int">      20 </i>
   <v>       0.00000000       0.00000000       0.00000000 </v>
   <v>       0.50000000       0.00000000       0.00000000 </v>
   <v>       0.33333333       0.33333333       0.00000000 </v>
   <v>       0.00000000       0.00000000       0.00000000 </v>
  </generation>
  <varray name="kpointlist" >
   <v>       0.00000000       0.00000000       0.00000000 </v>
   <v>       0.02631579       0.00000000       0.00000000 </v>
   <v>       0.05263158       0.00000000       0.00000000 </v>
   <v>       0.07894737       0.00000000       0.00000000 </v>
   <v>       0.10526316       0.00000000       0.00000000 </v>
   <v>       0.13157895       0.00000000       0.00000000 </v>
   <v>       0.15789474       0.00000000       0.00000000 </v>
   <v>       0.18421053       0.00000000       0.00000000 </v>
   <v>       0.21052632       0.00000000       0.00000000 </v>
   <v>       0.23684211       0.00000000       0.00000000 </v>
   <v>       0.26315789       0.00000000       0.00000000 </v>
   <v>       0.28947368       0.00000000       0.00000000 </v>
   <v>       0.31578947       0.00000000       0.00000000 </v>
   <v>       0.34210526       0.00000000       0.00000000 </v>
   <v>       0.36842105       0.00000000       0.00000000 </v>
   <v>       0.39473684       0.00000000       0.00000000 </v>
   <v>       0.42105263       0.00000000       0.00000000 </v>
   <v>       0.44736842       0.00000000       0.00000000 </v>
   <v>       0.47368421       0.00000000       0.00000000 </v>
   <v>       0.50000000       0.00000000       0.00000000 </v>
   <v>       0.50000000       0.00000000       0.00000000 </v>
   <v>       0.49122807       0.01754386       0.00000000 </v>
   <v>       0.48245614       0.03508772       0.00000000 </v>
   <v>       0.47368421       0.05263158       0.00000000 </v>
   <v>       0.46491228       0.07017544       0.00000000 </v>
   <v>       0.45614035       0.08771930       0.00000000 </v>
   <v>       0.44736842       0.10526316       0.00000000 </v>
   <v>       0.43859649       0.12280702       0.00000000 </v>
   <v>       0.42982456       0.14035088       0.00000000 </v>
   <v>       0.42105263       0.15789474       0.00000000 </v>
   <v>       0.41228070       0.17543860       0.00000000 </v>
   <v>       0.40350877       0.19298246       0.00000000 </v>
   <v>       0.39473684       0.21052632       0.00000000 </v>
   <v>       0.38596491       0.22807018       0.00000000 </v>
   <v>       0.37719298       0.24561404       0.00000000 </v>
   <v>       0.36842105       0.26315789       0.00000000 </v>
   <v>       0.35964912       0.28070175       0.00000000 </v>
   <v>       0.35087719       0.29824561       0.00000000 </v>
   <v>       0.34210526       0.31578947       0.00000000 </v>
   <v>       0.33333333       0.33333333       0.00000000 </v>
   <v>       0.33333333       0.33333333       0.00000000 </v>
   <v>       0.31578947       0.31578947       0.00000000 </v>
   <v>       0.29824561       0.29824561       0.00000000 </v>
   <v>       0.28070175       0.28070175       0.00000000 </v>
   <v>       0.26315789       0.26315789       0.00000000 </v>
   <v>       0.24561404       0.24561404       0.00000000 </v>
   <v>       0.22807018       0.22807018       0.00000000 </v>
   <v>       0.21052632       0.21052632       0.00000000 </v>
   <v>       0.19298246       0.19298246       0.00000000 </v>
   <v>       0.17543860       0.17543860       0.00000000 </v>
   <v>       0.15789474       0.15789474       0.00000000 </v>
   <v>       0.14035088       0.14035088       0.00000000 </v>
   <v>       0.12280702       0.12280702       0.00000000 </v>
   <v>       0.10526316       0.10526316       0.00000000 </v>
   <v>       0.08771930       0.08771930       0.00000000 </v>
   <v>       0.07017544       0.07017544       0.00000000 </v>
   <v>       0.05263158       0.05263158       0.00000000 </v>
   <v>       0.03508772       0.03508772       0.00000000 </v>
   <v>       0.01754386       0.01754386       0.00000000 </v>
   <v>       0.00000000       0.00000000       0.00000000 </v>
  </varray>
  <varray name="weights" >
   <v>       0.01666667 </v>
   <v>       0.01666667 </v>
   <v>       0.01666667 </v>
   <v>       0.01666667 </v>
   <v>       0.01666667 </v>
   <v>       0.01666667 </v>
   <v>       0.01666667 </v>
   <v>       0.01666667 </v>
   <v>       0.01666667 </v>
   <v>       0.01666667 </v>
   <v>       0.01666667 </v>
   <v>       0.01666667 </v>
   <v>       0.01666667 </v>
   <v>       0.01666667 </v>
   <v>       0.01666667 </v>
   <v>       0.01666667 </v>
   <v>       0.01666667 </v>
   <v>       0.01666667 </v>
   <v>       0.01666667 </v>
   <v>       0.01666667 </v>
   <v>       0.01666667 </v>
   <v>       0.01666667 </v>
   <v>       0.01666667 </v>
   <v>       0.01666667 </v>
   <v>       0.01666667 </v>
   <v>       0.01666667 </v>
   <v>       0.01666667 </v>
   <v>       0.01666667 </v>
   <v>       0.01666667 </v>
   <v>       0.01666667 </v>
   <v>       0.01666667 </v>
   <v>       0.01666667 </v>
   <v>       0.01666667 </v>
   <v>       0.01666667 </v>
   <v>       0.01666667 </v>
   <v>       0.01666667 </v>
   <v>       0.01666667 </v>
   <v>       0.01666667 </v>
   <v>       0.01666667 </v>
   <v>       0.01666667 </v>
   <v>       0.01666667 </v>
   <v>       0.01666667 </v>
   <v>       0.01666667 </v>
   <v>       0.01666667 </v>
   <v>       0.01666667 </v>
   <v>       0.01666667 </v>
   <v>       0.01666667 </v>
   <v>       0.01666667 </v>
   <v>       0.01666667 </v>
   <v>       0.01666667 </v>
   <v>       0.01666667 </v>
   <v>       0.01666667 </v>
   <v>       0.01666667 </v>
   <v>       0.01666667 </v>
   <v>       0.01666667 </v>
   <v>       0.01666667 </v>
   <v>       0.01666667 </v>
   <v>       0.01666667 </v>
   <v>       0.01666667 </v>
   <v>       0.01666667 </v>
  </varray>
 </kpoints>
 <parameters>
  <separator name="general" >
   <i type="string" name="SYSTEM">Simulation for cell shape cell volume r</i>
   <i type="logical" name="LCOMPAT"> F  </i>
  </separator>
  <separator name="electronic" >
   <i type="string" name="PREC">high</i>
   <i name="ENMAX">    500.00000000</i>
   <i name="ENAUG">    644.87300000</i>
   <i name="EDIFF">      0.00001000</i>
   <i type="int" name="IALGO">    38</i>
   <i type="int" name="IWAVPR">    10</i>
   <i type="int" name="NBANDS">   208</i>
   <i name="NELECT">    282.00000000</i>
   <i type="int" name="TURBO">     0</i>
   <i type="int" name="IRESTART">     0</i>
   <i type="int" name="NREBOOT">     0</i>
   <i type="int" name="NMIN">     0</i>
   <i name="EREF">      0.00000000</i>
   <separator name="electronic smearing" >
    <i type="int" name="ISMEAR">     0</i>
    <i name="SIGMA">      0.01000000</i>
    <i name="KSPACING">      0.50000000</i>
    <i type="logical" name="KGAMMA"> T  </i>
   </separator>
   <separator name="electronic projectors" >
    <i type="logical" name="LREAL"> T  </i>
    <v name="ROPT">     -0.00040000     -0.00040000     -0.00040000</v>
    <i type="int" name="LMAXPAW">  -100</i>
    <i type="int" name="LMAXMIX">     2</i>
    <i type="logical" name="NLSPLINE"> F  </i>
   </separator>
   <separator name="electronic startup" >
    <i type="int" name="ISTART">     1</i>
    <i type="int" name="ICHARG">    11</i>
    <i type="int" name="INIWAV">     1</i>
   </separator>
   <separator name="electronic spin" >
    <i type="int" name="ISPIN">     1</i>
    <i type="logical" name="LNONCOLLINEAR"> F  </i>
    <v name="MAGMOM">      1.00000000      1.00000000      1.00000000      1.00000000      1.00000000      1.00000000      1.00000000      1.00000000      1.00000000      1.00000000      1.00000000      1.00000000      1.00000000      1.00000000      1.00000000      1.00000000      1.00000000      1.00000000      1.00000000      1.00000000
      1.00000000      1.00000000      1.00000000      1.00000000      1.00000000      1.00000000      1.00000000      1.00000000      1.00000000      1.00000000      1.00000000      1.00000000      1.00000000      1.00000000      1.00000000      1.00000000      1.00000000      1.00000000      1.00000000      1.00000000
      1.00000000      1.00000000      1.00000000      1.00000000      1.00000000      1.00000000      1.00000000      1.00000000      1.00000000      1.00000000      1.00000000      1.00000000      1.00000000      1.00000000      1.00000000      1.00000000      1.00000000      1.00000000      1.00000000      1.00000000
      1.00000000      1.00000000      1.00000000      1.00000000      1.00000000      1.00000000      1.00000000      1.00000000      1.00000000      1.00000000      1.00000000      1.00000000      1.00000000      1.00000000      1.00000000      1.00000000      1.00000000      1.00000000      1.00000000      1.00000000
      1.00000000      1.00000000      1.00000000      1.00000000      1.00000000      1.00000000      1.00000000      1.00000000      1.00000000      1.00000000      1.00000000      1.00000000      1.00000000      1.00000000      1.00000000      1.00000000      1.00000000      1.00000000      1.00000000      1.00000000
      1.00000000      1.00000000      1.00000000      1.00000000      1.00000000      1.00000000      1.00000000      1.00000000      1.00000000      1.00000000      1.00000000      1.00000000      1.00000000      1.00000000</v>
    <i name="NUPDOWN">     -1.00000000</i>
    <i type="logical" name="LSORBIT"> F  </i>
    <v name="SAXIS">      0.00000000      0.00000000      1.00000000</v>
    <i type="logical" name="LSPIRAL"> F  </i>
    <v name="QSPIRAL">      0.00000000      0.00000000      0.00000000</v>
    <i type="logical" name="LZEROZ"> F  </i>
   </separator>
   <separator name="electronic exchange-correlation" >
    <i type="logical" name="LASPH"> F  </i>
    <i type="logical" name="LMETAGGA"> F  </i>
   </separator>
   <separator name="electronic convergence" >
    <i type="int" name="NELM">   200</i>
    <i type="int" name="NELMDL">     0</i>
    <i type="int" name="NELMIN">     2</i>
    <i name="ENINI">    500.00000000</i>
    <separator name="electronic convergence detail" >
     <i type="logical" name="LDIAG"> T  </i>
     <i type="logical" name="LSUBROT"> F  </i>
     <i name="WEIMIN">      0.00000000</i>
     <i name="EBREAK">      0.00000001</i>
     <i name="DEPER">      0.30000000</i>
     <i type="int" name="NRMM">     4</i>
     <i name="TIME">      0.40000000</i>
    </separator>
   </separator>
   <separator name="electronic mixer" >
    <i name="AMIX">      0.40000000</i>
    <i name="BMIX">      1.00000000</i>
    <i name="AMIN">      0.10000000</i>
    <i name="AMIX_MAG">      1.60000000</i>
    <i name="BMIX_MAG">      1.00000000</i>
    <separator name="electronic mixer details" >
     <i type="int" name="IMIX">     4</i>
     <i type="logical" name="MIXFIRST"> F  </i>
     <i type="int" name="MAXMIX">   -45</i>
     <i name="WC">    100.00000000</i>
     <i type="int" name="INIMIX">     1</i>
     <i type="int" name="MIXPRE">     1</i>
     <i type="int" name="MREMOVE">     5</i>
    </separator>
   </separator>
   <separator name="electronic dipolcorrection" >
    <i type="logical" name="LDIPOL"> F  </i>
    <i type="logical" name="LMONO"> F  </i>
    <i type="int" name="IDIPOL">     0</i>
    <i name="EPSILON">      1.00000000</i>
    <v name="DIPOL">   -100.00000000   -100.00000000   -100.00000000</v>
    <i name="EFIELD">      0.00000000</i>
   </separator>
  </separator>
  <separator name="grids" >
   <i type="int" name="NGX">   162</i>
   <i type="int" name="NGY">   162</i>
   <i type="int" name="NGZ">   150</i>
   <i type="int" name="NGXF">   250</i>
   <i type="int" name="NGYF">   250</i>
   <i type="int" name="NGZF">   224</i>
   <i type="logical" name="ADDGRID"> F  </i>
  </separator>
  <separator name="ionic" >
   <i type="int" name="NSW">     0</i>
   <i type="int" name="IBRION">    -1</i>
   <i type="int" name="MDALGO">     0</i>
   <i type="int" name="ISIF">     2</i>
   <i name="PSTRESS">      0.00000000</i>
   <i name="EDIFFG">     -0.01000000</i>
   <i type="int" name="NFREE">     0</i>
   <i name="POTIM">      0.30000000</i>
   <i name="SMASS">     -3.00000000</i>
   <i name="SCALEE">      1.00000000</i>
  </separator>
  <separator name="ionic md" >
   <i name="TEBEG">      0.00010000</i>
   <i name="TEEND">      0.00010000</i>
   <i type="int" name="NBLOCK">     1</i>
   <i type="int" name="KBLOCK">     1</i>
   <i type="int" name="NPACO">   256</i>
   <i name="APACO">     16.00000000</i>
  </separator>
  <separator name="symmetry" >
   <i type="int" name="ISYM">     2</i>
   <i name="SYMPREC">      0.00001000</i>
  </separator>
  <separator name="dos" >
   <i type="int" name="LORBIT">     0</i>
   <v name="RWIGS">     -1.00000000     -1.00000000     -1.00000000</v>
   <i type="int" name="NEDOS">   301</i>
   <i name="EMIN">     10.00000000</i>
   <i name="EMAX">    -10.00000000</i>
   <i name="EFERMI">      0.00000000</i>
  </separator>
  <separator name="writing" >
   <i type="int" name="NWRITE">     0</i>
   <i type="logical" name="LWAVE"> F  </i>
   <i type="logical" name="LDOWNSAMPLE"> F  </i>
   <i type="logical" name="LCHARG"> F  </i>
   <i type="logical" name="LPARD"> F  </i>
   <i type="logical" name="LVTOT"> F  </i>
   <i type="logical" name="LVHAR"> F  </i>
   <i type="logical" name="LELF"> F  </i>
   <i type="logical" name="LOPTICS"> F  </i>
   <v name="STM">      0.00000000      0.00000000      0.00000000      0.00000000      0.00000000      0.00000000      0.00000000</v>
  </separator>
  <separator name="performance" >
   <i type="int" name="NPAR">    16</i>
   <i type="int" name="NSIM">     4</i>
   <i type="int" name="NBLK">    -1</i>
   <i type="logical" name="LPLANE"> T  </i>
   <i type="logical" name="LSCALAPACK"> T  </i>
   <i type="logical" name="LSCAAWARE"> F  </i>
   <i type="logical" name="LSCALU"> F  </i>
   <i type="logical" name="LASYNC"> F  </i>
   <i type="logical" name="LORBITALREAL"> F  </i>
  </separator>
  <separator name="miscellaneous" >
   <i type="int" name="IDIOT">     3</i>
   <i type="int" name="ISPECIAL">     0</i>
   <i type="logical" name="LMUSIC"> F  </i>
   <v name="POMASS">      1.00000000     12.01100000     14.00100000</v>
   <v name="DARWINR">      0.00000000      0.00000000      0.00000000</v>
   <v name="DARWINV">      1.00000000      1.00000000      1.00000000</v>
   <i type="logical" name="LCORR"> T  </i>
  </separator>
  <i type="logical" name="GGA_COMPAT"> T  </i>
  <i type="logical" name="LBERRY"> F  </i>
  <i type="int" name="ICORELEVEL">     0</i>
  <i type="logical" name="LDAU"> F  </i>
  <i type="int" name="I_CONSTRAINED_M">     0</i>
  <separator name="electronic exchange-correlation" >
   <i type="string" name="GGA">PE</i>
   <i type="int" name="VOSKOWN">     0</i>
   <i type="logical" name="LHFCALC"> F  </i>
   <i type="string" name="PRECFOCK"></i>
   <i type="logical" name="LSYMGRAD"> F  </i>
   <i type="logical" name="LHFONE"> F  </i>
   <i type="logical" name="LRHFCALC"> F  </i>
   <i type="logical" name="LTHOMAS"> F  </i>
   <i type="logical" name="LMODELHF"> F  </i>
   <i name="ENCUT4O">     -1.00000000</i>
   <i type="int" name="EXXOEP">     0</i>
   <i type="int" name="FOURORBIT">     0</i>
   <i name="AEXX">      0.00000000</i>
   <i name="HFALPHA">      0.00000000</i>
   <i name="MCALPHA">      0.00000000</i>
   <i name="ALDAX">      1.00000000</i>
   <i name="AGGAX">      1.00000000</i>
   <i name="ALDAC">      1.00000000</i>
   <i name="AGGAC">      1.00000000</i>
   <i type="int" name="NKREDX">     1</i>
   <i type="int" name="NKREDY">     1</i>
   <i type="int" name="NKREDZ">     1</i>
   <i type="logical" name="SHIFTRED"> F  </i>
   <i type="logical" name="ODDONLY"> F  </i>
   <i type="logical" name="EVENONLY"> F  </i>
   <i type="int" name="LMAXFOCK">     0</i>
   <i type="int" name="NMAXFOCKAE">     0</i>
   <i type="logical" name="LFOCKAEDFT"> F  </i>
   <i name="HFSCREEN">      0.00000000</i>
   <i name="HFSCREENC">      0.00000000</i>
   <i type="int" name="NBANDSGWLOW">     0</i>
  </separator>
  <separator name="vdW DFT" >
   <i type="logical" name="LUSE_VDW"> F  </i>
   <i name="Zab_VDW">     -0.84910000</i>
   <i name="PARAM1">      0.12340000</i>
   <i name="PARAM2">      1.00000000</i>
   <i name="PARAM3">      0.00000000</i>
  </separator>
  <separator name="model GW" >
   <i type="int" name="MODEL_GW">     0</i>
   <i name="MODEL_EPS0">     44.93958208</i>
   <i name="MODEL_ALPHA">      1.00000000</i>
  </separator>
  <separator name="linear response parameters" >
   <i type="logical" name="LEPSILON"> F  </i>
   <i type="logical" name="LRPA"> F  </i>
   <i type="logical" name="LNABLA"> F  </i>
   <i type="logical" name="LVEL"> F  </i>
   <i type="int" name="KINTER">     0</i>
   <i name="CSHIFT">      0.10000000</i>
   <i name="OMEGAMAX">     -1.00000000</i>
   <i name="DEG_THRESHOLD">      0.00200000</i>
   <i name="RTIME">     -0.10000000</i>
   <i name="WPLASMAI">      0.00000000</i>
   <v name="DFIELD">      0.00000000      0.00000000      0.00000000</v>
   <v name="WPLASMA">      0.00000000      0.00000000      0.00000000      0.00000000      0.00000000      0.00000000      0.00000000      0.00000000      0.00000000</v>
  </separator>
  <separator name="orbital magnetization" >
   <i type="logical" name="NUCIND"> F  </i>
   <v name="MAGPOS">      0.00000000      0.00000000      0.00000000</v>
   <i type="logical" name="LNICSALL"> T  </i>
   <i type="logical" name="ORBITALMAG"> F  </i>
   <i type="logical" name="LMAGBLOCH"> F  </i>
   <i type="logical" name="LCHIMAG"> F  </i>
   <i type="logical" name="LGAUGE"> T  </i>
   <i type="int" name="MAGATOM">     0</i>
   <v name="MAGDIPOL">      0.00000000      0.00000000      0.00000000</v>
   <v name="AVECCONST">      0.00000000      0.00000000      0.00000000</v>
  </separator>
  <separator name="response functions" >
   <i type="logical" name="LADDER"> F  </i>
   <i type="logical" name="LRPAFORCE"> F  </i>
   <i type="logical" name="LFXC"> F  </i>
   <i type="logical" name="LHARTREE"> T  </i>
   <i type="int" name="IBSE">     0</i>
   <v type="int" name="KPOINT">    -1     0     0     0</v>
   <i type="logical" name="LTCTE"> F  </i>
   <i type="logical" name="LTETE"> F  </i>
   <i type="logical" name="LTRIPLET"> F  </i>
   <i type="logical" name="LFXCEPS"> F  </i>
   <i type="logical" name="LFXHEG"> F  </i>
   <i type="int" name="NATURALO">     2</i>
   <i type="logical" name="L2ORDER"> F  </i>
   <i type="logical" name="LMP2LT"> F  </i>
   <i type="logical" name="LUSEW"> F  </i>
   <i name="ENCUTGW">     -2.00000000</i>
   <i name="ENCUTGWSOFT">     -2.00000000</i>
   <i name="ENCUTLF">     -1.00000000</i>
   <i type="int" name="LMAXMP2">    -1</i>
   <i name="SCISSOR">      0.00000000</i>
   <i type="int" name="NOMEGA">     0</i>
   <i type="int" name="NOMEGAR">     0</i>
   <i type="int" name="NBANDSGW">    -1</i>
   <i type="int" name="NBANDSO">    -1</i>
   <i type="int" name="NBANDSV">    -1</i>
   <i type="int" name="NELM">   200</i>
   <i type="int" name="NELMHF">     1</i>
   <i type="int" name="DIM">     3</i>
   <i type="int" name="ANTIRES">     0</i>
   <i name="OMEGAMAX">    -30.00000000</i>
   <i name="OMEGAMIN">    -30.00000000</i>
   <i name="OMEGATL">   -200.00000000</i>
   <i type="int" name="OMEGAGRID">   140</i>
   <i name="CSHIFT">     -0.10000000</i>
   <i type="logical" name="SELFENERGY"> F  </i>
   <i type="logical" name="LSPECTRAL"> F  </i>
   <i type="logical" name="LSPECTRALGW"> F  </i>
   <i type="logical" name="LSINGLES"> F  </i>
   <i type="logical" name="LFERMIGW"> F  </i>
   <i type="logical" name="ODDONLYGW"> F  </i>
   <i type="logical" name="EVENONLYGW"> F  </i>
   <i type="int" name="NKREDLFX">     1</i>
   <i type="int" name="NKREDLFY">     1</i>
   <i type="int" name="NKREDLFZ">     1</i>
   <i type="int" name="MAXMEM">  2800</i>
   <i type="int" name="TELESCOPE">     0</i>
   <i type="int" name="TAUPAR">     1</i>
   <i type="int" name="OMEGAPAR">    -1</i>
   <i name="LAMBDA">      1.00000000</i>
  </separator>
  <separator name="External order field" >
   <i name="OFIELD_KAPPA">      0.00000000</i>
   <v name="OFIELD_K">      0.00000000      0.00000000      0.00000000</v>
   <i name="OFIELD_Q6_NEAR">      0.00000000</i>
   <i name="OFIELD_Q6_FAR">      0.00000000</i>
   <i name="OFIELD_A">      0.00000000</i>
  </separator>
  <separator name="solvation model" >
   <i type="logical" name="LSOL"> F  </i>
  </separator>
 </parameters>
 <atominfo>
  <atoms>     114 </atoms>
  <types>       3 </types>
  <array name="atoms" >
   <dimension dim="1">ion</dimension>
   <field type="string">element</field>
   <field type="int">atomtype</field>
   <set>
    <rc><c>H </c><c>   1</c></rc>
    <rc><c>H </c><c>   1</c></rc>
    <rc><c>H </c><c>   1</c></rc>
    <rc><c>H </c><c>   1</c></rc>
    <rc><c>H </c><c>   1</c></rc>
    <rc><c>H </c><c>   1</c></rc>
    <rc><c>H </c><c>   1</c></rc>
    <rc><c>H </c><c>   1</c></rc>
    <rc><c>H </c><c>   1</c></rc>
    <rc><c>H </c><c>   1</c></rc>
    <rc><c>H </c><c>   1</c></rc>
    <rc><c>H </c><c>   1</c></rc>
    <rc><c>H </c><c>   1</c></rc>
    <rc><c>H </c><c>   1</c></rc>
    <rc><c>H </c><c>   1</c></rc>
    <rc><c>H </c><c>   1</c></rc>
    <rc><c>H </c><c>   1</c></rc>
    <rc><c>H </c><c>   1</c></rc>
    <rc><c>H </c><c>   1</c></rc>
    <rc><c>H </c><c>   1</c></rc>
    <rc><c>H </c><c>   1</c></rc>
    <rc><c>H </c><c>   1</c></rc>
    <rc><c>H </c><c>   1</c></rc>
    <rc><c>H </c><c>   1</c></rc>
    <rc><c>H </c><c>   1</c></rc>
    <rc><c>H </c><c>   1</c></rc>
    <rc><c>H </c><c>   1</c></rc>
    <rc><c>H </c><c>   1</c></rc>
    <rc><c>H </c><c>   1</c></rc>
    <rc><c>H </c><c>   1</c></rc>
    <rc><c>H </c><c>   1</c></rc>
    <rc><c>H </c><c>   1</c></rc>
    <rc><c>H </c><c>   1</c></rc>
    <rc><c>H </c><c>   1</c></rc>
    <rc><c>H </c><c>   1</c></rc>
    <rc><c>H </c><c>   1</c></rc>
    <rc><c>H </c><c>   1</c></rc>
    <rc><c>H </c><c>   1</c></rc>
    <rc><c>H </c><c>   1</c></rc>
    <rc><c>H </c><c>   1</c></rc>
    <rc><c>H </c><c>   1</c></rc>
    <rc><c>H </c><c>   1</c></rc>
    <rc><c>H </c><c>   1</c></rc>
    <rc><c>H </c><c>   1</c></rc>
    <rc><c>H </c><c>   1</c></rc>
    <rc><c>H </c><c>   1</c></rc>
    <rc><c>H </c><c>   1</c></rc>
    <rc><c>H </c><c>   1</c></rc>
    <rc><c>H </c><c>   1</c></rc>
    <rc><c>H </c><c>   1</c></rc>
    <rc><c>H </c><c>   1</c></rc>
    <rc><c>H </c><c>   1</c></rc>
    <rc><c>H </c><c>   1</c></rc>
    <rc><c>H </c><c>   1</c></rc>
    <rc><c>H </c><c>   1</c></rc>
    <rc><c>H </c><c>   1</c></rc>
    <rc><c>H </c><c>   1</c></rc>
    <rc><c>H </c><c>   1</c></rc>
    <rc><c>H </c><c>   1</c></rc>
    <rc><c>H </c><c>   1</c></rc>
    <rc><c>C </c><c>   2</c></rc>
    <rc><c>C </c><c>   2</c></rc>
    <rc><c>C </c><c>   2</c></rc>
    <rc><c>C </c><c>   2</c></rc>
    <rc><c>C </c><c>   2</c></rc>
    <rc><c>C </c><c>   2</c></rc>
    <rc><c>C </c><c>   2</c></rc>
    <rc><c>C </c><c>   2</c></rc>
    <rc><c>C </c><c>   2</c></rc>
    <rc><c>C </c><c>   2</c></rc>
    <rc><c>C </c><c>   2</c></rc>
    <rc><c>C </c><c>   2</c></rc>
    <rc><c>C </c><c>   2</c></rc>
    <rc><c>C </c><c>   2</c></rc>
    <rc><c>C </c><c>   2</c></rc>
    <rc><c>C </c><c>   2</c></rc>
    <rc><c>C </c><c>   2</c></rc>
    <rc><c>C </c><c>   2</c></rc>
    <rc><c>C </c><c>   2</c></rc>
    <rc><c>C </c><c>   2</c></rc>
    <rc><c>C </c><c>   2</c></rc>
    <rc><c>C </c><c>   2</c></rc>
    <rc><c>C </c><c>   2</c></rc>
    <rc><c>C </c><c>   2</c></rc>
    <rc><c>C </c><c>   2</c></rc>
    <rc><c>C </c><c>   2</c></rc>
    <rc><c>C </c><c>   2</c></rc>
    <rc><c>C </c><c>   2</c></rc>
    <rc><c>C </c><c>   2</c></rc>
    <rc><c>C </c><c>   2</c></rc>
    <rc><c>C </c><c>   2</c></rc>
    <rc><c>C </c><c>   2</c></rc>
    <rc><c>C </c><c>   2</c></rc>
    <rc><c>C </c><c>   2</c></rc>
    <rc><c>C </c><c>   2</c></rc>
    <rc><c>C </c><c>   2</c></rc>
    <rc><c>C </c><c>   2</c></rc>
    <rc><c>C </c><c>   2</c></rc>
    <rc><c>C </c><c>   2</c></rc>
    <rc><c>C </c><c>   2</c></rc>
    <rc><c>C </c><c>   2</c></rc>
    <rc><c>C </c><c>   2</c></rc>
    <rc><c>C </c><c>   2</c></rc>
    <rc><c>C </c><c>   2</c></rc>
    <rc><c>C </c><c>   2</c></rc>
    <rc><c>C </c><c>   2</c></rc>
    <rc><c>C </c><c>   2</c></rc>
    <rc><c>C </c><c>   2</c></rc>
    <rc><c>N </c><c>   3</c></rc>
    <rc><c>N </c><c>   3</c></rc>
    <rc><c>N </c><c>   3</c></rc>
    <rc><c>N </c><c>   3</c></rc>
    <rc><c>N </c><c>   3</c></rc>
    <rc><c>N </c><c>   3</c></rc>
   </set>
  </array>
  <array name="atomtypes" >
   <dimension dim="1">type</dimension>
   <field type="int">atomspertype</field>
   <field type="string">element</field>
   <field>mass</field>
   <field>valence</field>
   <field type="string">pseudopotential</field>
   <set>
    <rc><c>  60</c><c>H </c><c>      1.00000000</c><c>      1.00000000</c><c>  PAW_PBE H 15Jun2001                   </c></rc>
    <rc><c>  48</c><c>C </c><c>     12.01100000</c><c>      4.00000000</c><c>  PAW_PBE C 08Apr2002                   </c></rc>
    <rc><c>   6</c><c>N </c><c>     14.00100000</c><c>      5.00000000</c><c>  PAW_PBE N 08Apr2002                   </c></rc>
   </set>
  </array>
 </atominfo>
 <structure name="initialpos" >
  <crystal>
   <varray name="basis" >
    <v>      22.18056069       0.01577447       0.00000000 </v>
    <v>     -11.07648793      19.23987901       0.00000000 </v>
    <v>       0.00000000       0.00000000      20.00000000 </v>
   </varray>
   <i name="volume">   8538.52059611 </i>
   <varray name="rec_basis" >
    <v>       0.04506607       0.02594475       0.00000000 </v>
    <v>      -0.00003695       0.05195411       0.00000000 </v>
    <v>       0.00000000       0.00000000       0.05000000 </v>
   </varray>
  </crystal>
  <varray name="positions" >
   <v>       0.27497582       0.53748267       0.52983343 </v>
   <v>       0.46314183       0.73788240       0.53107657 </v>
   <v>       0.26238015       0.72572514       0.52992768 </v>
   <v>       0.36538164       0.83090294       0.52017347 </v>
   <v>       0.46559774       0.63485457       0.52027915 </v>
   <v>       0.16971036       0.53529241       0.51914002 </v>
   <v>       0.72571160       0.46259876       0.47128994 </v>
   <v>       0.53726754       0.26243000       0.47166302 </v>
   <v>       0.73784587       0.27414054       0.47314191 </v>
   <v>       0.63469632       0.16923062       0.48378000 </v>
   <v>       0.53510633       0.36557499       0.48135039 </v>
   <v>       0.83073207       0.46456124       0.48233694 </v>
   <v>       0.57665877       0.14756884       0.60450435 </v>
   <v>       0.50806494       0.08352428       0.65348924 </v>
   <v>       0.58757039       0.08382574       0.64671784 </v>
   <v>       0.47580012       0.89119277       0.63698035 </v>
   <v>       0.56373634       0.95865856       0.64492623 </v>
   <v>       0.49545405       0.97145668       0.67299419 </v>
   <v>       0.49702171       0.14645724       0.44983319 </v>
   <v>       0.51720784       0.16071728       0.53546097 </v>
   <v>       0.57010994       0.42154156       0.60253968 </v>
   <v>       0.57476962       0.48981074       0.65227296 </v>
   <v>       0.49551532       0.41079700       0.64478214 </v>
   <v>       0.41499439       0.52321893       0.63619529 </v>
   <v>       0.39417831       0.43506136       0.64303259 </v>
   <v>       0.47507233       0.50251064       0.67198330 </v>
   <v>       0.64984218       0.50330721       0.44892095 </v>
   <v>       0.64355512       0.48250813       0.53443913 </v>
   <v>       0.85287849       0.43031641       0.60413657 </v>
   <v>       0.91728801       0.42659293       0.65351187 </v>
   <v>       0.91657824       0.50542512       0.64555965 </v>
   <v>       0.10931745       0.58662032       0.63553646 </v>
   <v>       0.04155151       0.60698629       0.64272438 </v>
   <v>       0.02917595       0.52656629       0.67206867 </v>
   <v>       0.85424575       0.34967302       0.45085405 </v>
   <v>       0.84000963       0.35687004       0.53627437 </v>
   <v>       0.43577744       0.04169607       0.35998858 </v>
   <v>       0.52386932       0.10898758       0.36741396 </v>
   <v>       0.50369808       0.02856955       0.33141157 </v>
   <v>       0.42346616       0.85272223       0.40002301 </v>
   <v>       0.41187812       0.91619312       0.35810183 </v>
   <v>       0.49159881       0.91700799       0.35077022 </v>
   <v>       0.48385739       0.84024181       0.46887655 </v>
   <v>       0.50286399       0.85387207       0.55476039 </v>
   <v>       0.60635488       0.56540522       0.35927957 </v>
   <v>       0.58612434       0.47741705       0.36623461 </v>
   <v>       0.52566471       0.49756284       0.33039746 </v>
   <v>       0.43014363       0.57815854       0.39966318 </v>
   <v>       0.50500491       0.58935226       0.35759156 </v>
   <v>       0.42602057       0.51008501       0.35000196 </v>
   <v>       0.35690583       0.51719087       0.46799846 </v>
   <v>       0.35110817       0.49734596       0.55371232 </v>
   <v>       0.95886684       0.39259340       0.36066623 </v>
   <v>       0.89101634       0.41288136       0.36760368 </v>
   <v>       0.97115983       0.47287558       0.33100119 </v>
   <v>       0.14730549       0.57033574       0.39870449 </v>
   <v>       0.08408089       0.49464050       0.35766423 </v>
   <v>       0.08227453       0.57288365       0.34932139 </v>
   <v>       0.15988673       0.64343385       0.46695494 </v>
   <v>       0.14622289       0.64977978       0.55266318 </v>
   <v>       0.36625155       0.73985357       0.53044136 </v>
   <v>       0.29291273       0.69955995       0.52979462 </v>
   <v>       0.26057883       0.62702022       0.52991805 </v>
   <v>       0.30105280       0.59405563       0.52975405 </v>
   <v>       0.37365627       0.63415269       0.53038080 </v>
   <v>       0.40652964       0.70743057       0.53037938 </v>
   <v>       0.63402029       0.26018875       0.47230244 </v>
   <v>       0.70736057       0.30035189       0.47284194 </v>
   <v>       0.73983269       0.37289339       0.47212124 </v>
   <v>       0.69951611       0.40601672       0.47184751 </v>
   <v>       0.62690582       0.36606265       0.47144128 </v>
   <v>       0.59389752       0.29278061       0.47201008 </v>
   <v>       0.51504809       0.06908343       0.49572724 </v>
   <v>       0.52305163       0.04482970       0.55840966 </v>
   <v>       0.50629501       0.97495811       0.56525246 </v>
   <v>       0.55011963       0.09252818       0.61842540 </v>
   <v>       0.51053198       0.94748360       0.63322954 </v>
   <v>       0.53043852       0.14321130       0.48874956 </v>
   <v>       0.55420511       0.48492657       0.49455476 </v>
   <v>       0.52156122       0.47624829       0.55712653 </v>
   <v>       0.46847139       0.49316695       0.56412278 </v>
   <v>       0.54178304       0.44827908       0.61681668 </v>
   <v>       0.43636863       0.48824845       0.63202831 </v>
   <v>       0.61310192       0.46961421       0.48757540 </v>
   <v>       0.93130763       0.44579450       0.49554953 </v>
   <v>       0.95559220       0.47894392       0.55783519 </v>
   <v>       0.02538895       0.53230644       0.56418948 </v>
   <v>       0.90799471       0.45903242       0.61791718 </v>
   <v>       0.05293846       0.56495308       0.63180650 </v>
   <v>       0.85726183       0.38679064       0.48911307 </v>
   <v>       0.48493342       0.93126651       0.50871684 </v>
   <v>       0.47683633       0.95549657       0.44605851 </v>
   <v>       0.49353830       0.02533852       0.43922495 </v>
   <v>       0.48901153       0.05273328       0.37130871 </v>
   <v>       0.44966581       0.90774983       0.38609221 </v>
   <v>       0.46982727       0.85721080       0.51547756 </v>
   <v>       0.44652482       0.51531869       0.50780880 </v>
   <v>       0.47911281       0.52392005       0.44522186 </v>
   <v>       0.53226180       0.50709060       0.43824158 </v>
   <v>       0.56442254       0.51211151       0.37034553 </v>
   <v>       0.45876572       0.55169801       0.38548609 </v>
   <v>       0.38763236       0.53064139       0.51472453 </v>
   <v>       0.06894663       0.55403540       0.50752025 </v>
   <v>       0.04465036       0.52092504       0.44521810 </v>
   <v>       0.97489954       0.46746681       0.43890312 </v>
   <v>       0.94739977       0.43461182       0.37135736 </v>
   <v>       0.09217794       0.54099289       0.38507178 </v>
   <v>       0.14298929       0.61304372       0.51387618 </v>
   <v>       0.39696607       0.81168718       0.53217853 </v>
   <v>       0.41481828       0.60330836       0.53205825 </v>
   <v>       0.18865976       0.58592500       0.53131850 </v>
   <v>       0.60313448       0.18829516       0.47106295 </v>
   <v>       0.58588205       0.39708566       0.46949075 </v>
   <v>       0.81176630       0.41381951       0.47056393 </v>
  </varray>
 </structure>
 <calculation>
  <scstep>
   <time name="dav">  286.05  288.93</time>
   <time name="total">  286.18  289.07</time>
   <energy>
    <i name="alphaZ">     41.65425107 </i>
    <i name="ewald">  30928.42023825 </i>
    <i name="hartreedc"> -38710.83491395 </i>
    <i name="XCdc">    952.36469850 </i>
    <i name="pawpsdc">  23617.92095716 </i>
    <i name="pawaedc"> -23661.11593583 </i>
    <i name="eentropy">     -0.00000000 </i>
    <i name="bandstr">  -3271.94586025 </i>
    <i name="atom">   9399.51912970 </i>
    <i name="e_fr_energy">   -704.01743535 </i>
    <i name="e_wo_entrp">   -704.01743535 </i>
    <i name="e_0_energy">   -704.01743535 </i>
   </energy>
  </scstep>
  <scstep>
   <time name="dav">  320.44  323.68</time>
   <time name="total">  320.44  323.68</time>
   <energy>
    <i name="e_fr_energy">   -704.66993006 </i>
    <i name="e_wo_entrp">   -704.66993006 </i>
    <i name="e_0_energy">   -704.66993006 </i>
   </energy>
  </scstep>
  <scstep>
   <time name="dav">  351.48  355.08</time>
   <time name="total">  351.48  355.09</time>
   <energy>
    <i name="e_fr_energy">   -704.68566538 </i>
    <i name="e_wo_entrp">   -704.68566538 </i>
    <i name="e_0_energy">   -704.68566538 </i>
   </energy>
  </scstep>
  <scstep>
   <time name="dav">  320.56  323.75</time>
   <time name="total">  320.56  323.75</time>
   <energy>
    <i name="e_fr_energy">   -704.68597054 </i>
    <i name="e_wo_entrp">   -704.68597054 </i>
    <i name="e_0_energy">   -704.68597054 </i>
   </energy>
  </scstep>
  <scstep>
   <time name="dav">  301.67  304.92</time>
   <time name="total">  301.67  304.93</time>
   <energy>
    <i name="e_fr_energy">   -704.68598744 </i>
    <i name="e_wo_entrp">   -704.68598744 </i>
    <i name="e_0_energy">   -704.68598744 </i>
   </energy>
  </scstep>
  <scstep>
   <time name="dav">  262.16  265.01</time>
   <time name="total">  262.17  265.01</time>
   <energy>
    <i name="alphaZ">     41.65425107 </i>
    <i name="ewald">  30928.42023825 </i>
    <i name="hartreedc"> -38710.83491395 </i>
    <i name="XCdc">    952.36469850 </i>
    <i name="pawpsdc">  23617.92095716 </i>
    <i name="pawaedc"> -23661.11593583 </i>
    <i name="eentropy">     -0.00000000 </i>
    <i name="bandstr">  -3272.61441299 </i>
    <i name="atom">   9399.51912970 </i>
    <i name="e_fr_energy">   -704.68598809 </i>
    <i name="e_wo_entrp">   -704.68598809 </i>
    <i name="e_0_energy">   -704.68598809 </i>
   </energy>
  </scstep>
  <structure>
   <crystal>
    <varray name="basis" >
     <v>      22.18056069       0.01577447       0.00000000 </v>
     <v>     -11.07648793      19.23987901       0.00000000 </v>
     <v>       0.00000000       0.00000000      20.00000000 </v>
    </varray>
    <i name="volume">   8538.52059611 </i>
    <varray name="rec_basis" >
     <v>       0.04506607       0.02594475       0.00000000 </v>
     <v>      -0.00003695       0.05195411       0.00000000 </v>
     <v>       0.00000000       0.00000000       0.05000000 </v>
    </varray>
   </crystal>
   <varray name="positions" >
    <v>       0.27497582       0.53748267       0.52983343 </v>
    <v>       0.46314183       0.73788240       0.53107657 </v>
    <v>       0.26238015       0.72572514       0.52992768 </v>
    <v>       0.36538164       0.83090294       0.52017347 </v>
    <v>       0.46559774       0.63485457       0.52027915 </v>
    <v>       0.16971036       0.53529241       0.51914002 </v>
    <v>       0.72571160       0.46259876       0.47128994 </v>
    <v>       0.53726754       0.26243000       0.47166302 </v>
    <v>       0.73784587       0.27414054       0.47314191 </v>
    <v>       0.63469632       0.16923062       0.48378000 </v>
    <v>       0.53510633       0.36557499       0.48135039 </v>
    <v>       0.83073207       0.46456124       0.48233694 </v>
    <v>       0.57665877       0.14756884       0.60450435 </v>
    <v>       0.50806494       0.08352428       0.65348924 </v>
    <v>       0.58757039       0.08382574       0.64671784 </v>
    <v>       0.47580012       0.89119277       0.63698035 </v>
    <v>       0.56373634       0.95865856       0.64492623 </v>
    <v>       0.49545405       0.97145668       0.67299419 </v>
    <v>       0.49702171       0.14645724       0.44983319 </v>
    <v>       0.51720784       0.16071728       0.53546097 </v>
    <v>       0.57010994       0.42154156       0.60253968 </v>
    <v>       0.57476962       0.48981074       0.65227296 </v>
    <v>       0.49551532       0.41079700       0.64478214 </v>
    <v>       0.41499439       0.52321893       0.63619529 </v>
    <v>       0.39417831       0.43506136       0.64303259 </v>
    <v>       0.47507233       0.50251064       0.67198330 </v>
    <v>       0.64984218       0.50330721       0.44892095 </v>
    <v>       0.64355512       0.48250813       0.53443913 </v>
    <v>       0.85287849       0.43031641       0.60413657 </v>
    <v>       0.91728801       0.42659293       0.65351187 </v>
    <v>       0.91657824       0.50542512       0.64555965 </v>
    <v>       0.10931745       0.58662032       0.63553646 </v>
    <v>       0.04155151       0.60698629       0.64272438 </v>
    <v>       0.02917595       0.52656629       0.67206867 </v>
    <v>       0.85424575       0.34967302       0.45085405 </v>
    <v>       0.84000963       0.35687004       0.53627437 </v>
    <v>       0.43577744       0.04169607       0.35998858 </v>
    <v>       0.52386932       0.10898758       0.36741396 </v>
    <v>       0.50369808       0.02856955       0.33141157 </v>
    <v>       0.42346616       0.85272223       0.40002301 </v>
    <v>       0.41187812       0.91619312       0.35810183 </v>
    <v>       0.49159881       0.91700799       0.35077022 </v>
    <v>       0.48385739       0.84024181       0.46887655 </v>
    <v>       0.50286399       0.85387207       0.55476039 </v>
    <v>       0.60635488       0.56540522       0.35927957 </v>
    <v>       0.58612434       0.47741705       0.36623461 </v>
    <v>       0.52566471       0.49756284       0.33039746 </v>
    <v>       0.43014363       0.57815854       0.39966318 </v>
    <v>       0.50500491       0.58935226       0.35759156 </v>
    <v>       0.42602057       0.51008501       0.35000196 </v>
    <v>       0.35690583       0.51719087       0.46799846 </v>
    <v>       0.35110817       0.49734596       0.55371232 </v>
    <v>       0.95886684       0.39259340       0.36066623 </v>
    <v>       0.89101634       0.41288136       0.36760368 </v>
    <v>       0.97115983       0.47287558       0.33100119 </v>
    <v>       0.14730549       0.57033574       0.39870449 </v>
    <v>       0.08408089       0.49464050       0.35766423 </v>
    <v>       0.08227453       0.57288365       0.34932139 </v>
    <v>       0.15988673       0.64343385       0.46695494 </v>
    <v>       0.14622289       0.64977978       0.55266318 </v>
    <v>       0.36625155       0.73985357       0.53044136 </v>
    <v>       0.29291273       0.69955995       0.52979462 </v>
    <v>       0.26057883       0.62702022       0.52991805 </v>
    <v>       0.30105280       0.59405563       0.52975405 </v>
    <v>       0.37365627       0.63415269       0.53038080 </v>
    <v>       0.40652964       0.70743057       0.53037938 </v>
    <v>       0.63402029       0.26018875       0.47230244 </v>
    <v>       0.70736057       0.30035189       0.47284194 </v>
    <v>       0.73983269       0.37289339       0.47212124 </v>
    <v>       0.69951611       0.40601672       0.47184751 </v>
    <v>       0.62690582       0.36606265       0.47144128 </v>
    <v>       0.59389752       0.29278061       0.47201008 </v>
    <v>       0.51504809       0.06908343       0.49572724 </v>
    <v>       0.52305163       0.04482970       0.55840966 </v>
    <v>       0.50629501       0.97495811       0.56525246 </v>
    <v>       0.55011963       0.09252818       0.61842540 </v>
    <v>       0.51053198       0.94748360       0.63322954 </v>
    <v>       0.53043852       0.14321130       0.48874956 </v>
    <v>       0.55420511       0.48492657       0.49455476 </v>
    <v>       0.52156122       0.47624829       0.55712653 </v>
    <v>       0.46847139       0.49316695       0.56412278 </v>
    <v>       0.54178304       0.44827908       0.61681668 </v>
    <v>       0.43636863       0.48824845       0.63202831 </v>
    <v>       0.61310192       0.46961421       0.48757540 </v>
    <v>       0.93130763       0.44579450       0.49554953 </v>
    <v>       0.95559220       0.47894392       0.55783519 </v>
    <v>       0.02538895       0.53230644       0.56418948 </v>
    <v>       0.90799471       0.45903242       0.61791718 </v>
    <v>       0.05293846       0.56495308       0.63180650 </v>
    <v>       0.85726183       0.38679064       0.48911307 </v>
    <v>       0.48493342       0.93126651       0.50871684 </v>
    <v>       0.47683633       0.95549657       0.44605851 </v>
    <v>       0.49353830       0.02533852       0.43922495 </v>
    <v>       0.48901153       0.05273328       0.37130871 </v>
    <v>       0.44966581       0.90774983       0.38609221 </v>
    <v>       0.46982727       0.85721080       0.51547756 </v>
    <v>       0.44652482       0.51531869       0.50780880 </v>
    <v>       0.47911281       0.52392005       0.44522186 </v>
    <v>       0.53226180       0.50709060       0.43824158 </v>
    <v>       0.56442254       0.51211151       0.37034553 </v>
    <v>       0.45876572       0.55169801       0.38548609 </v>
    <v>       0.38763236       0.53064139       0.51472453 </v>
    <v>       0.06894663       0.55403540       0.50752025 </v>
    <v>       0.04465036       0.52092504       0.44521810 </v>
    <v>       0.97489954       0.46746681       0.43890312 </v>
    <v>       0.94739977       0.43461182       0.37135736 </v>
    <v>       0.09217794       0.54099289       0.38507178 </v>
    <v>       0.14298929       0.61304372       0.51387618 </v>
    <v>       0.39696607       0.81168718       0.53217853 </v>
    <v>       0.41481828       0.60330836       0.53205825 </v>
    <v>       0.18865976       0.58592500       0.53131850 </v>
    <v>       0.60313448       0.18829516       0.47106295 </v>
    <v>       0.58588205       0.39708566       0.46949075 </v>
    <v>       0.81176630       0.41381951       0.47056393 </v>
   </varray>
  </structure>
  <varray name="forces" >
   <v>      -0.00119734      -0.00181286       0.00413169 </v>
   <v>       0.00294521      -0.00195940      -0.00139053 </v>
   <v>      -0.00054788      -0.00061107       0.00151172 </v>
   <v>       0.00002606       0.00044918      -0.00054851 </v>
   <v>      -0.00165943      -0.00088017       0.00064998 </v>
   <v>       0.00262838      -0.00002946       0.00430159 </v>
   <v>       0.00111552      -0.00056696      -0.00226204 </v>
   <v>      -0.00078209       0.00385153      -0.00120348 </v>
   <v>       0.00029022      -0.00476888      -0.00528328 </v>
   <v>      -0.00467822       0.00220660      -0.00699540 </v>
   <v>       0.00332008      -0.00025186      -0.00122368 </v>
   <v>      -0.00007318      -0.00313955      -0.00563964 </v>
   <v>       0.00019361       0.00131403      -0.00113093 </v>
   <v>      -0.00068874       0.00039457      -0.00087227 </v>
   <v>      -0.00135928      -0.00035413      -0.00018109 </v>
   <v>      -0.00165027      -0.00102982      -0.00012205 </v>
   <v>      -0.00110264       0.00096604      -0.00004965 </v>
   <v>      -0.00208972       0.00108901       0.00104421 </v>
   <v>       0.00354865      -0.00107701       0.00270947 </v>
   <v>      -0.00323517      -0.00207843       0.00006533 </v>
   <v>       0.00098965       0.00012625      -0.00042082 </v>
   <v>       0.00104301       0.00170742      -0.00040712 </v>
   <v>       0.00007915       0.00106152       0.00130165 </v>
   <v>      -0.00189490       0.00229924       0.00096747 </v>
   <v>       0.00143864       0.00090880       0.00141141 </v>
   <v>       0.00129160       0.00125810       0.00206120 </v>
   <v>       0.00040882      -0.00023891       0.00171348 </v>
   <v>      -0.00048298       0.00117096      -0.00307453 </v>
   <v>      -0.00268557      -0.00255837      -0.00059957 </v>
   <v>       0.00169345      -0.00293298      -0.00039590 </v>
   <v>      -0.00130073       0.00059717       0.00256319 </v>
   <v>       0.00237332      -0.00038832       0.00043616 </v>
   <v>      -0.00086567      -0.00043093      -0.00057161 </v>
   <v>      -0.00112016      -0.00313569       0.00264423 </v>
   <v>      -0.00247222       0.00389410       0.00418619 </v>
   <v>      -0.00063249       0.00060695      -0.00513906 </v>
   <v>       0.00206969      -0.00003657      -0.00199522 </v>
   <v>       0.00159562       0.00258860      -0.00009109 </v>
   <v>       0.00345815      -0.00076606      -0.00072814 </v>
   <v>       0.00019768      -0.00061379       0.00092807 </v>
   <v>       0.00205810       0.00002774      -0.00105972 </v>
   <v>       0.00150215       0.00056420       0.00050608 </v>
   <v>      -0.00103391       0.00087476       0.00323884 </v>
   <v>      -0.00232803       0.00044945      -0.00078705 </v>
   <v>      -0.00106061      -0.00039834       0.00005804 </v>
   <v>       0.00084258      -0.00058344       0.00026241 </v>
   <v>      -0.00219054      -0.00153924      -0.00125381 </v>
   <v>      -0.00181748       0.00005858       0.00168342 </v>
   <v>       0.00014397       0.00061478      -0.00111529 </v>
   <v>      -0.00051182      -0.00183718       0.00068354 </v>
   <v>       0.00175388      -0.00286622       0.00385377 </v>
   <v>       0.00110452       0.00179809      -0.00309910 </v>
   <v>       0.00158542       0.00138008      -0.00108873 </v>
   <v>      -0.00168927      -0.00010528      -0.00207744 </v>
   <v>      -0.00145872       0.00289851      -0.00245290 </v>
   <v>       0.00187447       0.00126490       0.00122000 </v>
   <v>       0.00095651      -0.00127911      -0.00183799 </v>
   <v>      -0.00163084       0.00351555      -0.00011510 </v>
   <v>      -0.00104446      -0.00046003       0.00221406 </v>
   <v>       0.00423258      -0.00350951      -0.00339990 </v>
   <v>       0.00220714       0.00156480       0.00147877 </v>
   <v>      -0.00107073      -0.00082686       0.00138753 </v>
   <v>      -0.00241038      -0.00506497       0.00314969 </v>
   <v>       0.00122470       0.00131481       0.00078764 </v>
   <v>       0.00169445       0.00035505       0.00237179 </v>
   <v>      -0.00438992       0.00013359       0.00125568 </v>
   <v>      -0.00277941       0.00451342       0.00062680 </v>
   <v>      -0.00181583      -0.00012461      -0.00276716 </v>
   <v>       0.00050573       0.00197681      -0.00373504 </v>
   <v>      -0.00140377       0.00124987      -0.00049019 </v>
   <v>      -0.00248467       0.00044112      -0.00367035 </v>
   <v>      -0.00292438      -0.00209616      -0.00125629 </v>
   <v>      -0.00027339       0.00335952       0.00140597 </v>
   <v>      -0.00282726       0.00027035      -0.00094336 </v>
   <v>       0.00119154      -0.00113426      -0.00251787 </v>
   <v>      -0.00048584       0.00142202       0.00056335 </v>
   <v>      -0.00035582       0.00090878       0.00059066 </v>
   <v>      -0.00538255      -0.00141262       0.00429113 </v>
   <v>       0.00256926       0.00181972       0.00048165 </v>
   <v>       0.00189808       0.00311579      -0.00151678 </v>
   <v>       0.00129626      -0.00223730      -0.00187726 </v>
   <v>       0.00041631       0.00079252      -0.00180533 </v>
   <v>       0.00089658       0.00049249       0.00134456 </v>
   <v>      -0.00087287       0.00111073       0.00093708 </v>
   <v>      -0.00287085      -0.00147635       0.00079332 </v>
   <v>       0.00289663      -0.00340977      -0.00405384 </v>
   <v>       0.00002493       0.00094214      -0.00485115 </v>
   <v>       0.00002991      -0.00025684      -0.00175492 </v>
   <v>      -0.00038268      -0.00075203      -0.00020685 </v>
   <v>       0.00463974      -0.00011901       0.00243096 </v>
   <v>       0.00069813      -0.00279780       0.00129545 </v>
   <v>       0.00234584      -0.00014279       0.00181013 </v>
   <v>      -0.00106810      -0.00032004       0.00198223 </v>
   <v>       0.00116311      -0.00023702      -0.00099761 </v>
   <v>       0.00074456      -0.00060538      -0.00129851 </v>
   <v>       0.00160311       0.00035882       0.00055908 </v>
   <v>      -0.00443309      -0.00056764       0.00076791 </v>
   <v>       0.00078685      -0.00315683       0.00169943 </v>
   <v>       0.00170788       0.00125839       0.00381136 </v>
   <v>       0.00043210       0.00010001      -0.00005378 </v>
   <v>      -0.00029030      -0.00034920      -0.00040593 </v>
   <v>      -0.00244148      -0.00464679      -0.00170451 </v>
   <v>       0.00315608       0.00317667       0.00054445 </v>
   <v>      -0.00365343       0.00164860       0.00359596 </v>
   <v>       0.00099898      -0.00081014       0.00403345 </v>
   <v>       0.00054759       0.00179303      -0.00061434 </v>
   <v>      -0.00063118      -0.00033643       0.00226660 </v>
   <v>      -0.00149833      -0.00069144      -0.00231058 </v>
   <v>       0.00131077      -0.00131525       0.00234560 </v>
   <v>       0.00092637       0.00123229      -0.00157098 </v>
   <v>      -0.00007694      -0.00066633       0.00529728 </v>
   <v>       0.00911732      -0.00251861       0.00116535 </v>
   <v>       0.00109649      -0.00037194       0.00137556 </v>
   <v>      -0.00277955       0.00539594      -0.00377834 </v>
  </varray>
  <varray name="stress" >
   <v>       0.05024141      -0.00370043      -0.00476378 </v>
   <v>      -0.00370043       0.06117455       0.00246574 </v>
   <v>      -0.00476378       0.00246574      -0.28392730 </v>
  </varray>
  <energy>
   <i name="e_fr_energy">   -707.06907586 </i>
   <i name="e_wo_entrp">   -707.06907586 </i>
   <i name="e_0_energy">     -0.00000000 </i>
  </energy>
  <time name="totalsc"> 2162.57 2185.73</time>
  <eigenvalues>
   <array>
    <dimension dim="1">band</dimension>
    <dimension dim="2">kpoint</dimension>
    <dimension dim="3">spin</dimension>
    <field>eigene</field>
    <field>occ</field>
    <set>
     <set comment="spin 1">
      <set comment="kpoint 1">
       <r>  -22.7323    1.0000 </r>
       <r>  -22.7147    1.0000 </r>
       <r>  -22.5104    1.0000 </r>
       <r>  -22.5081    1.0000 </r>
       <r>  -22.4816    1.0000 </r>
       <r>  -22.4792    1.0000 </r>
       <r>  -20.9339    1.0000 </r>
       <r>  -20.8516    1.0000 </r>
       <r>  -20.8502    1.0000 </r>
       <r>  -19.8165    1.0000 </r>
       <r>  -19.4401    1.0000 </r>
       <r>  -19.1817    1.0000 </r>
       <r>  -19.1815    1.0000 </r>
       <r>  -19.1808    1.0000 </r>
       <r>  -19.0696    1.0000 </r>
       <r>  -19.0685    1.0000 </r>
       <r>  -18.4809    1.0000 </r>
       <r>  -17.7490    1.0000 </r>
       <r>  -17.7485    1.0000 </r>
       <r>  -17.3494    1.0000 </r>
       <r>  -17.3449    1.0000 </r>
       <r>  -17.3443    1.0000 </r>
       <r>  -17.1385    1.0000 </r>
       <r>  -17.1376    1.0000 </r>
       <r>  -17.1006    1.0000 </r>
       <r>  -16.9301    1.0000 </r>
       <r>  -16.9293    1.0000 </r>
       <r>  -16.4536    1.0000 </r>
       <r>  -16.3633    1.0000 </r>
       <r>  -16.2107    1.0000 </r>
       <r>  -16.2093    1.0000 </r>
       <r>  -16.1534    1.0000 </r>
       <r>  -16.1518    1.0000 </r>
       <r>  -15.1653    1.0000 </r>
       <r>  -15.1631    1.0000 </r>
       <r>  -15.0914    1.0000 </r>
       <r>  -15.0795    1.0000 </r>
       <r>  -15.0783    1.0000 </r>
       <r>  -15.0621    1.0000 </r>
       <r>  -14.0174    1.0000 </r>
       <r>  -14.0166    1.0000 </r>
       <r>  -13.6762    1.0000 </r>
       <r>  -13.6739    1.0000 </r>
       <r>  -13.4932    1.0000 </r>
       <r>  -12.9602    1.0000 </r>
       <r>  -12.9591    1.0000 </r>
       <r>  -12.9539    1.0000 </r>
       <r>  -12.8935    1.0000 </r>
       <r>  -12.8930    1.0000 </r>
       <r>  -12.8344    1.0000 </r>
       <r>  -12.5006    1.0000 </r>
       <r>  -12.0296    1.0000 </r>
       <r>  -12.0280    1.0000 </r>
       <r>  -12.0274    1.0000 </r>
       <r>  -11.6671    1.0000 </r>
       <r>  -11.5919    1.0000 </r>
       <r>  -11.1705    1.0000 </r>
       <r>  -11.1692    1.0000 </r>
       <r>  -11.0251    1.0000 </r>
       <r>  -11.0235    1.0000 </r>
       <r>  -10.9223    1.0000 </r>
       <r>  -10.8919    1.0000 </r>
       <r>  -10.4675    1.0000 </r>
       <r>  -10.4640    1.0000 </r>
       <r>  -10.4522    1.0000 </r>
       <r>  -10.3849    1.0000 </r>
       <r>  -10.3823    1.0000 </r>
       <r>  -10.2381    1.0000 </r>
       <r>  -10.2007    1.0000 </r>
       <r>  -10.1986    1.0000 </r>
       <r>  -10.0178    1.0000 </r>
       <r>   -9.8826    1.0000 </r>
       <r>   -9.8817    1.0000 </r>
       <r>   -9.8537    1.0000 </r>
       <r>   -9.8484    1.0000 </r>
       <r>   -9.7832    1.0000 </r>
       <r>   -9.7824    1.0000 </r>
       <r>   -9.7818    1.0000 </r>
       <r>   -9.5661    1.0000 </r>
       <r>   -9.4982    1.0000 </r>
       <r>   -9.4379    1.0000 </r>
       <r>   -9.4365    1.0000 </r>
       <r>   -9.4257    1.0000 </r>
       <r>   -9.4043    1.0000 </r>
       <r>   -9.4025    1.0000 </r>
       <r>   -9.2020    1.0000 </r>
       <r>   -9.2004    1.0000 </r>
       <r>   -9.1239    1.0000 </r>
       <r>   -9.0825    1.0000 </r>
       <r>   -9.0818    1.0000 </r>
       <r>   -9.0508    1.0000 </r>
       <r>   -9.0413    1.0000 </r>
       <r>   -9.0396    1.0000 </r>
       <r>   -8.8513    1.0000 </r>
       <r>   -8.8459    1.0000 </r>
       <r>   -8.8447    1.0000 </r>
       <r>   -8.8331    1.0000 </r>
       <r>   -8.7909    1.0000 </r>
       <r>   -8.6813    1.0000 </r>
       <r>   -8.6135    1.0000 </r>
       <r>   -8.5881    1.0000 </r>
       <r>   -8.5873    1.0000 </r>
       <r>   -8.5274    1.0000 </r>
       <r>   -8.5134    1.0000 </r>
       <r>   -8.5122    1.0000 </r>
       <r>   -8.3012    1.0000 </r>
       <r>   -8.2867    1.0000 </r>
       <r>   -8.2859    1.0000 </r>
       <r>   -8.1691    1.0000 </r>
       <r>   -8.1676    1.0000 </r>
       <r>   -8.0384    1.0000 </r>
       <r>   -7.8775    1.0000 </r>
       <r>   -7.8772    1.0000 </r>
       <r>   -7.8738    1.0000 </r>
       <r>   -7.8581    1.0000 </r>
       <r>   -7.8575    1.0000 </r>
       <r>   -7.3631    1.0000 </r>
       <r>   -7.3018    1.0000 </r>
       <r>   -7.3015    1.0000 </r>
       <r>   -7.2954    1.0000 </r>
       <r>   -7.2946    1.0000 </r>
       <r>   -7.1857    1.0000 </r>
       <r>   -7.0417    1.0000 </r>
       <r>   -7.0265    1.0000 </r>
       <r>   -7.0250    1.0000 </r>
       <r>   -6.6756    1.0000 </r>
       <r>   -6.6742    1.0000 </r>
       <r>   -6.6174    1.0000 </r>
       <r>   -6.6168    1.0000 </r>
       <r>   -5.2522    1.0000 </r>
       <r>   -5.2147    1.0000 </r>
       <r>   -5.2142    1.0000 </r>
       <r>   -4.9785    1.0000 </r>
       <r>   -4.9671    1.0000 </r>
       <r>   -4.9660    1.0000 </r>
       <r>   -4.5722    1.0000 </r>
       <r>   -4.5480    1.0000 </r>
       <r>   -3.7383    1.0000 </r>
       <r>   -3.7376    1.0000 </r>
       <r>   -3.7254    1.0000 </r>
       <r>   -3.7242    1.0000 </r>
       <r>   -0.6132    0.0000 </r>
       <r>   -0.5862    0.0000 </r>
       <r>   -0.5855    0.0000 </r>
       <r>   -0.4346    0.0000 </r>
       <r>   -0.4341    0.0000 </r>
       <r>   -0.4072    0.0000 </r>
       <r>   -0.3284    0.0000 </r>
       <r>   -0.0781    0.0000 </r>
       <r>   -0.0766    0.0000 </r>
       <r>    0.0153    0.0000 </r>
       <r>    0.1214    0.0000 </r>
       <r>    0.1231    0.0000 </r>
       <r>    0.2246    0.0000 </r>
       <r>    0.3304    0.0000 </r>
       <r>    0.3324    0.0000 </r>
       <r>    0.3556    0.0000 </r>
       <r>    0.3562    0.0000 </r>
       <r>    0.4607    0.0000 </r>
       <r>    0.4613    0.0000 </r>
       <r>    0.4629    0.0000 </r>
       <r>    0.5404    0.0000 </r>
       <r>    0.5499    0.0000 </r>
       <r>    0.5514    0.0000 </r>
       <r>    0.7145    0.0000 </r>
       <r>    0.7954    0.0000 </r>
       <r>    0.7978    0.0000 </r>
       <r>    0.8035    0.0000 </r>
       <r>    0.8795    0.0000 </r>
       <r>    0.8802    0.0000 </r>
       <r>    0.9270    0.0000 </r>
       <r>    0.9321    0.0000 </r>
       <r>    0.9335    0.0000 </r>
       <r>    0.9683    0.0000 </r>
       <r>    1.0719    0.0000 </r>
       <r>    1.0761    0.0000 </r>
       <r>    1.1031    0.0000 </r>
       <r>    1.1286    0.0000 </r>
       <r>    1.2331    0.0000 </r>
       <r>    1.2501    0.0000 </r>
       <r>    1.2738    0.0000 </r>
       <r>    1.2767    0.0000 </r>
       <r>    1.2906    0.0000 </r>
       <r>    1.4057    0.0000 </r>
       <r>    1.4098    0.0000 </r>
       <r>    1.4137    0.0000 </r>
       <r>    1.4156    0.0000 </r>
       <r>    1.4175    0.0000 </r>
       <r>    1.4379    0.0000 </r>
       <r>    1.5197    0.0000 </r>
       <r>    1.5234    0.0000 </r>
       <r>    1.5347    0.0000 </r>
       <r>    1.5786    0.0000 </r>
       <r>    1.5892    0.0000 </r>
       <r>    1.5906    0.0000 </r>
       <r>    1.6437    0.0000 </r>
       <r>    1.6467    0.0000 </r>
       <r>    1.7034    0.0000 </r>
       <r>    1.7042    0.0000 </r>
       <r>    1.7563    0.0000 </r>
       <r>    1.7976    0.0000 </r>
       <r>    1.8008    0.0000 </r>
       <r>    1.8040    0.0000 </r>
       <r>    1.8735    0.0000 </r>
       <r>    1.8771    0.0000 </r>
       <r>    1.8993    0.0000 </r>
       <r>    1.9018    0.0000 </r>
       <r>    1.9247    0.0000 </r>
      </set>
      <set comment="kpoint 2">
       <r>  -22.7323    1.0000 </r>
       <r>  -22.7147    1.0000 </r>
       <r>  -22.5103    1.0000 </r>
       <r>  -22.5081    1.0000 </r>
       <r>  -22.4816    1.0000 </r>
       <r>  -22.4793    1.0000 </r>
       <r>  -20.9337    1.0000 </r>
       <r>  -20.8516    1.0000 </r>
       <r>  -20.8503    1.0000 </r>
       <r>  -19.8161    1.0000 </r>
       <r>  -19.4412    1.0000 </r>
       <r>  -19.1817    1.0000 </r>
       <r>  -19.1815    1.0000 </r>
       <r>  -19.1808    1.0000 </r>
       <r>  -19.0695    1.0000 </r>
       <r>  -19.0672    1.0000 </r>
       <r>  -18.4819    1.0000 </r>
       <r>  -17.7486    1.0000 </r>
       <r>  -17.7479    1.0000 </r>
       <r>  -17.3494    1.0000 </r>
       <r>  -17.3449    1.0000 </r>
       <r>  -17.3443    1.0000 </r>
       <r>  -17.1423    1.0000 </r>
       <r>  -17.1382    1.0000 </r>
       <r>  -17.0967    1.0000 </r>
       <r>  -16.9301    1.0000 </r>
       <r>  -16.9294    1.0000 </r>
       <r>  -16.4534    1.0000 </r>
       <r>  -16.3634    1.0000 </r>
       <r>  -16.2107    1.0000 </r>
       <r>  -16.2093    1.0000 </r>
       <r>  -16.1535    1.0000 </r>
       <r>  -16.1519    1.0000 </r>
       <r>  -15.1653    1.0000 </r>
       <r>  -15.1630    1.0000 </r>
       <r>  -15.0914    1.0000 </r>
       <r>  -15.0795    1.0000 </r>
       <r>  -15.0783    1.0000 </r>
       <r>  -15.0622    1.0000 </r>
       <r>  -14.0171    1.0000 </r>
       <r>  -14.0165    1.0000 </r>
       <r>  -13.6776    1.0000 </r>
       <r>  -13.6739    1.0000 </r>
       <r>  -13.4916    1.0000 </r>
       <r>  -12.9603    1.0000 </r>
       <r>  -12.9593    1.0000 </r>
       <r>  -12.9539    1.0000 </r>
       <r>  -12.8970    1.0000 </r>
       <r>  -12.8931    1.0000 </r>
       <r>  -12.8307    1.0000 </r>
       <r>  -12.5009    1.0000 </r>
       <r>  -12.0296    1.0000 </r>
       <r>  -12.0280    1.0000 </r>
       <r>  -12.0274    1.0000 </r>
       <r>  -11.6670    1.0000 </r>
       <r>  -11.5920    1.0000 </r>
       <r>  -11.1705    1.0000 </r>
       <r>  -11.1691    1.0000 </r>
       <r>  -11.0250    1.0000 </r>
       <r>  -11.0238    1.0000 </r>
       <r>  -10.9220    1.0000 </r>
       <r>  -10.8919    1.0000 </r>
       <r>  -10.4679    1.0000 </r>
       <r>  -10.4644    1.0000 </r>
       <r>  -10.4528    1.0000 </r>
       <r>  -10.3840    1.0000 </r>
       <r>  -10.3821    1.0000 </r>
       <r>  -10.2374    1.0000 </r>
       <r>  -10.2008    1.0000 </r>
       <r>  -10.1986    1.0000 </r>
       <r>  -10.0175    1.0000 </r>
       <r>   -9.8828    1.0000 </r>
       <r>   -9.8821    1.0000 </r>
       <r>   -9.8536    1.0000 </r>
       <r>   -9.8487    1.0000 </r>
       <r>   -9.7832    1.0000 </r>
       <r>   -9.7824    1.0000 </r>
       <r>   -9.7818    1.0000 </r>
       <r>   -9.5657    1.0000 </r>
       <r>   -9.4982    1.0000 </r>
       <r>   -9.4383    1.0000 </r>
       <r>   -9.4371    1.0000 </r>
       <r>   -9.4245    1.0000 </r>
       <r>   -9.4044    1.0000 </r>
       <r>   -9.4025    1.0000 </r>
       <r>   -9.2020    1.0000 </r>
       <r>   -9.2009    1.0000 </r>
       <r>   -9.1238    1.0000 </r>
       <r>   -9.0826    1.0000 </r>
       <r>   -9.0818    1.0000 </r>
       <r>   -9.0507    1.0000 </r>
       <r>   -9.0413    1.0000 </r>
       <r>   -9.0397    1.0000 </r>
       <r>   -8.8513    1.0000 </r>
       <r>   -8.8459    1.0000 </r>
       <r>   -8.8447    1.0000 </r>
       <r>   -8.8330    1.0000 </r>
       <r>   -8.7909    1.0000 </r>
       <r>   -8.6812    1.0000 </r>
       <r>   -8.6129    1.0000 </r>
       <r>   -8.5881    1.0000 </r>
       <r>   -8.5873    1.0000 </r>
       <r>   -8.5274    1.0000 </r>
       <r>   -8.5134    1.0000 </r>
       <r>   -8.5123    1.0000 </r>
       <r>   -8.3013    1.0000 </r>
       <r>   -8.2867    1.0000 </r>
       <r>   -8.2859    1.0000 </r>
       <r>   -8.1691    1.0000 </r>
       <r>   -8.1688    1.0000 </r>
       <r>   -8.0374    1.0000 </r>
       <r>   -7.8780    1.0000 </r>
       <r>   -7.8773    1.0000 </r>
       <r>   -7.8737    1.0000 </r>
       <r>   -7.8580    1.0000 </r>
       <r>   -7.8573    1.0000 </r>
       <r>   -7.3630    1.0000 </r>
       <r>   -7.3018    1.0000 </r>
       <r>   -7.3016    1.0000 </r>
       <r>   -7.2954    1.0000 </r>
       <r>   -7.2944    1.0000 </r>
       <r>   -7.1858    1.0000 </r>
       <r>   -7.0417    1.0000 </r>
       <r>   -7.0265    1.0000 </r>
       <r>   -7.0250    1.0000 </r>
       <r>   -6.6755    1.0000 </r>
       <r>   -6.6742    1.0000 </r>
       <r>   -6.6174    1.0000 </r>
       <r>   -6.6169    1.0000 </r>
       <r>   -5.2522    1.0000 </r>
       <r>   -5.2147    1.0000 </r>
       <r>   -5.2143    1.0000 </r>
       <r>   -4.9785    1.0000 </r>
       <r>   -4.9671    1.0000 </r>
       <r>   -4.9660    1.0000 </r>
       <r>   -4.5721    1.0000 </r>
       <r>   -4.5480    1.0000 </r>
       <r>   -3.7383    1.0000 </r>
       <r>   -3.7376    1.0000 </r>
       <r>   -3.7254    1.0000 </r>
       <r>   -3.7242    1.0000 </r>
       <r>   -0.6132    0.0000 </r>
       <r>   -0.5862    0.0000 </r>
       <r>   -0.5856    0.0000 </r>
       <r>   -0.4346    0.0000 </r>
       <r>   -0.4340    0.0000 </r>
       <r>   -0.4072    0.0000 </r>
       <r>   -0.3282    0.0000 </r>
       <r>   -0.0790    0.0000 </r>
       <r>   -0.0771    0.0000 </r>
       <r>    0.0161    0.0000 </r>
       <r>    0.1217    0.0000 </r>
       <r>    0.1235    0.0000 </r>
       <r>    0.2250    0.0000 </r>
       <r>    0.3302    0.0000 </r>
       <r>    0.3316    0.0000 </r>
       <r>    0.3558    0.0000 </r>
       <r>    0.3564    0.0000 </r>
       <r>    0.4552    0.0000 </r>
       <r>    0.4629    0.0000 </r>
       <r>    0.4675    0.0000 </r>
       <r>    0.5408    0.0000 </r>
       <r>    0.5497    0.0000 </r>
       <r>    0.5508    0.0000 </r>
       <r>    0.7148    0.0000 </r>
       <r>    0.7932    0.0000 </r>
       <r>    0.7962    0.0000 </r>
       <r>    0.8065    0.0000 </r>
       <r>    0.8776    0.0000 </r>
       <r>    0.8793    0.0000 </r>
       <r>    0.9169    0.0000 </r>
       <r>    0.9330    0.0000 </r>
       <r>    0.9445    0.0000 </r>
       <r>    0.9704    0.0000 </r>
       <r>    1.0732    0.0000 </r>
       <r>    1.0759    0.0000 </r>
       <r>    1.1038    0.0000 </r>
       <r>    1.1283    0.0000 </r>
       <r>    1.2270    0.0000 </r>
       <r>    1.2502    0.0000 </r>
       <r>    1.2742    0.0000 </r>
       <r>    1.2796    0.0000 </r>
       <r>    1.2904    0.0000 </r>
       <r>    1.3997    0.0000 </r>
       <r>    1.4072    0.0000 </r>
       <r>    1.4122    0.0000 </r>
       <r>    1.4168    0.0000 </r>
       <r>    1.4204    0.0000 </r>
       <r>    1.4467    0.0000 </r>
       <r>    1.5139    0.0000 </r>
       <r>    1.5209    0.0000 </r>
       <r>    1.5433    0.0000 </r>
       <r>    1.5773    0.0000 </r>
       <r>    1.5887    0.0000 </r>
       <r>    1.5900    0.0000 </r>
       <r>    1.6441    0.0000 </r>
       <r>    1.6471    0.0000 </r>
       <r>    1.7029    0.0000 </r>
       <r>    1.7043    0.0000 </r>
       <r>    1.7567    0.0000 </r>
       <r>    1.7955    0.0000 </r>
       <r>    1.7998    0.0000 </r>
       <r>    1.8035    0.0000 </r>
       <r>    1.8710    0.0000 </r>
       <r>    1.8752    0.0000 </r>
       <r>    1.9002    0.0000 </r>
       <r>    1.9055    0.0000 </r>
       <r>    1.9257    0.0000 </r>
      </set>
      <set comment="kpoint 3">
       <r>  -22.7322    1.0000 </r>
       <r>  -22.7148    1.0000 </r>
       <r>  -22.5103    1.0000 </r>
       <r>  -22.5080    1.0000 </r>
       <r>  -22.4816    1.0000 </r>
       <r>  -22.4794    1.0000 </r>
       <r>  -20.9334    1.0000 </r>
       <r>  -20.8516    1.0000 </r>
       <r>  -20.8507    1.0000 </r>
       <r>  -19.8149    1.0000 </r>
       <r>  -19.4447    1.0000 </r>
       <r>  -19.1817    1.0000 </r>
       <r>  -19.1815    1.0000 </r>
       <r>  -19.1808    1.0000 </r>
       <r>  -19.0695    1.0000 </r>
[...]
       <r>   -19.0733     6.6224    28.6003 </r>
       <r>   -18.9827     4.5672    30.5829 </r>
       <r>   -18.8920     3.1480    30.9188 </r>
       <r>   -18.8014     8.1242    31.7034 </r>
       <r>   -18.7107     6.1679    32.3593 </r>
       <r>   -18.6201     7.6759    33.1315 </r>
       <r>   -18.5294     3.4822    33.5157 </r>
       <r>   -18.4388     4.7700    34.0000 </r>
       <r>   -18.3481     0.0000    34.0000 </r>
       <r>   -18.2575     0.0000    34.0000 </r>
       <r>   -18.1668     0.0000    34.0000 </r>
       <r>   -18.0762     0.0000    34.0000 </r>
       <r>   -17.9855     0.0000    34.0000 </r>
       <r>   -17.8949     0.0000    34.0000 </r>
       <r>   -17.8042     0.0000    34.0000 </r>
       <r>   -17.7136    26.6671    36.4174 </r>
       <r>   -17.6229     3.6501    36.8309 </r>
       <r>   -17.5323     8.0740    37.5992 </r>
       <r>   -17.4416     6.5204    38.2915 </r>
       <r>   -17.3510    21.7142    40.3372 </r>
       <r>   -17.2603    11.0562    45.3883 </r>
       <r>   -17.1697     3.5933    45.7592 </r>
       <r>   -17.0790    26.6200    48.2142 </r>
       <r>   -16.9884     7.8478    48.9804 </r>
       <r>   -16.8978    51.3814    54.0000 </r>
       <r>   -16.8071     0.0000    54.0000 </r>
       <r>   -16.7165     0.0000    54.0000 </r>
       <r>   -16.6258     0.0000    54.0000 </r>
       <r>   -16.5352     0.0000    54.0000 </r>
       <r>   -16.4445     4.7199    54.4279 </r>
       <r>   -16.3539    35.9807    57.9650 </r>
       <r>   -16.2632     0.0000    58.0000 </r>
       <r>   -16.1726    52.7381    62.7807 </r>
       <r>   -16.0819    29.2656    66.0000 </r>
       <r>   -15.9913     0.0000    66.0000 </r>
       <r>   -15.9006     0.0000    66.0000 </r>
       <r>   -15.8100     0.0000    66.0000 </r>
       <r>   -15.7193     0.0000    66.0000 </r>
       <r>   -15.6287     0.0000    66.0000 </r>
       <r>   -15.5380     0.0000    66.0000 </r>
       <r>   -15.4474     0.0000    66.0000 </r>
       <r>   -15.3567     0.0000    66.0000 </r>
       <r>   -15.2661     0.0000    66.0000 </r>
       <r>   -15.1754     1.3580    66.1231 </r>
       <r>   -15.0848    71.5053    72.7902 </r>
       <r>   -14.9941    10.8480    78.0000 </r>
       <r>   -14.9035     0.0000    78.0000 </r>
       <r>   -14.8128     0.0000    78.0000 </r>
       <r>   -14.7222     0.0000    78.0000 </r>
       <r>   -14.6315     0.0000    78.0000 </r>
       <r>   -14.5409     0.0000    78.0000 </r>
       <r>   -14.4502     0.0000    78.0000 </r>
       <r>   -14.3596     0.0000    78.0000 </r>
       <r>   -14.2689     0.0000    78.0000 </r>
       <r>   -14.1783     0.0000    78.0000 </r>
       <r>   -14.0876     0.0000    78.0000 </r>
       <r>   -13.9970    27.6898    80.5101 </r>
       <r>   -13.9063    12.8097    81.7970 </r>
       <r>   -13.8157    12.4785    83.0674 </r>
       <r>   -13.7250     4.5985    83.5507 </r>
       <r>   -13.6344    26.1060    86.0000 </r>
       <r>   -13.5437     0.0000    86.0000 </r>
       <r>   -13.4531     4.1391    86.3752 </r>
       <r>   -13.3624     3.7420    86.7728 </r>
       <r>   -13.2718     8.0410    87.5304 </r>
       <r>   -13.1811     7.2736    88.2950 </r>
       <r>   -13.0905     8.1328    89.1385 </r>
       <r>   -12.9998     3.4258    89.5106 </r>
       <r>   -12.9092    69.7045    95.8857 </r>
       <r>   -12.8185    24.7168    98.1719 </r>
       <r>   -12.7279     4.1303    98.6084 </r>
       <r>   -12.6372     8.4871    99.4367 </r>
       <r>   -12.5466    16.0168   101.0880 </r>
       <r>   -12.4559     8.7914   102.0000 </r>
       <r>   -12.3653     0.0000   102.0000 </r>
       <r>   -12.2746     0.0000   102.0000 </r>
       <r>   -12.1840     0.0000   102.0000 </r>
       <r>   -12.0933     0.0000   102.0000 </r>
       <r>   -12.0027    66.1778   107.9990 </r>
       <r>   -11.9120     0.0000   108.0000 </r>
       <r>   -11.8214     0.0000   108.0000 </r>
       <r>   -11.7307     0.0000   108.0000 </r>
       <r>   -11.6401    14.5948   109.3230 </r>
       <r>   -11.5494    23.0452   112.0000 </r>
       <r>   -11.4588     0.0000   112.0000 </r>
       <r>   -11.3681     0.0000   112.0000 </r>
       <r>   -11.2775     0.0000   112.0000 </r>
       <r>   -11.1868     2.1532   112.1952 </r>
       <r>   -11.0962    35.3094   116.4227 </r>
       <r>   -11.0055    27.1998   119.1070 </r>
       <r>   -10.9149     6.8008   120.3638 </r>
       <r>   -10.8242    36.6831   124.0000 </r>
       <r>   -10.7336     0.0000   124.0000 </r>
       <r>   -10.6429     0.0000   124.0000 </r>
       <r>   -10.5523     0.5761   124.0522 </r>
       <r>   -10.4616    51.1271   129.0437 </r>
       <r>   -10.3710    10.5423   130.9557 </r>
       <r>   -10.2803    29.1434   134.3542 </r>
       <r>   -10.1897    33.5210   137.5435 </r>
       <r>   -10.0990    12.5024   139.0041 </r>
       <r>   -10.0084    22.7320   141.1280 </r>
       <r>    -9.9177    31.9534   144.4354 </r>
       <r>    -9.8271    52.2165   149.7077 </r>
       <r>    -9.7364    66.1890   156.0000 </r>
       <r>    -9.6458     0.0000   156.0000 </r>
       <r>    -9.5551     4.1051   156.3721 </r>
       <r>    -9.4645    41.5067   160.3311 </r>
       <r>    -9.3738    83.3281   168.8351 </r>
       <r>    -9.2832    21.6088   170.9310 </r>
       <r>    -9.1925    29.6702   173.7595 </r>
       <r>    -9.1019    23.2835   176.1106 </r>
       <r>    -9.0112    97.2389   186.0000 </r>
       <r>    -8.9206     0.0000   186.0000 </r>
       <r>    -8.8299    70.7186   192.4106 </r>
       <r>    -8.7393    32.4022   196.0000 </r>
       <r>    -8.6486    12.1564   197.1020 </r>
       <r>    -8.5580    55.3200   202.6242 </r>
       <r>    -8.4673    74.8397   209.4851 </r>
       <r>    -8.3767     9.5707   210.5031 </r>
       <r>    -8.2860    36.6765   213.9996 </r>
       <r>    -8.1954     9.8776   217.6439 </r>
       <r>    -8.1047    24.9909   220.0000 </r>
       <r>    -8.0141     4.2414   220.3845 </r>
       <r>    -7.9235    16.3449   221.9823 </r>
       <r>    -7.8328   101.0080   231.4987 </r>
       <r>    -7.7422     0.0000   232.0000 </r>
       <r>    -7.6515     0.0000   232.0000 </r>
       <r>    -7.5609     0.0000   232.0000 </r>
       <r>    -7.4702     0.0000   232.0000 </r>
       <r>    -7.3796     0.0365   232.0033 </r>
       <r>    -7.2889    87.1789   239.9060 </r>
       <r>    -7.1983    30.3920   243.3940 </r>
       <r>    -7.1076     2.8081   244.0000 </r>
       <r>    -7.0170    62.6759   249.6815 </r>
       <r>    -6.9263     0.0000   250.0000 </r>
       <r>    -6.8357     0.0000   250.0000 </r>
       <r>    -6.7450     0.0000   250.0000 </r>
       <r>    -6.6544    35.8608   253.2508 </r>
       <r>    -6.5637    43.9997   258.0000 </r>
       <r>    -6.4731     0.0000   258.0000 </r>
       <r>    -6.3824     0.0000   258.0000 </r>
       <r>    -6.2918     0.0000   258.0000 </r>
       <r>    -6.2011     0.0000   258.0000 </r>
       <r>    -6.1105     0.0000   258.0000 </r>
       <r>    -6.0198     0.0000   258.0000 </r>
       <r>    -5.9292     0.0000   258.0000 </r>
       <r>    -5.8385     0.0000   258.0000 </r>
       <r>    -5.7479     0.0000   258.0000 </r>
       <r>    -5.6572     0.0000   258.0000 </r>
       <r>    -5.5666     0.0000   258.0000 </r>
       <r>    -5.4759     0.0000   258.0000 </r>
       <r>    -5.3853     0.0000   258.0000 </r>
       <r>    -5.2946     0.0000   258.0000 </r>
       <r>    -5.2040    64.3285   263.8313 </r>
       <r>    -5.1133     0.0000   264.0000 </r>
       <r>    -5.0227     0.0000   264.0000 </r>
       <r>    -4.9320    66.1890   270.0000 </r>
       <r>    -4.8414     0.0000   270.0000 </r>
       <r>    -4.7507     0.0000   270.0000 </r>
       <r>    -4.6601     0.0000   270.0000 </r>
       <r>    -4.5694     9.6037   270.8706 </r>
       <r>    -4.4788    21.8610   274.0000 </r>
       <r>    -4.3881     0.0000   274.0000 </r>
       <r>    -4.2975     0.0000   274.0000 </r>
       <r>    -4.2068     0.0000   274.0000 </r>
       <r>    -4.1162     0.0000   274.0000 </r>
       <r>    -4.0255     0.0000   274.0000 </r>
       <r>    -3.9349     0.0000   274.0000 </r>
       <r>    -3.8442     0.0000   274.0000 </r>
       <r>    -3.7536     0.5139   274.0466 </r>
       <r>    -3.6629    87.7381   282.0000 </r>
       <r>    -3.5723     0.0000   282.0000 </r>
       <r>    -3.4816     0.0000   282.0000 </r>
       <r>    -3.3910     0.0000   282.0000 </r>
       <r>    -3.3003     0.0000   282.0000 </r>
       <r>    -3.2097     0.0000   282.0000 </r>
       <r>    -3.1190     0.0000   282.0000 </r>
       <r>    -3.0284     0.0000   282.0000 </r>
       <r>    -2.9377     0.0000   282.0000 </r>
       <r>    -2.8471     0.0000   282.0000 </r>
       <r>    -2.7564     0.0000   282.0000 </r>
       <r>    -2.6658     0.0000   282.0000 </r>
       <r>    -2.5751     0.0000   282.0000 </r>
       <r>    -2.4845     0.0000   282.0000 </r>
       <r>    -2.3938     0.0000   282.0000 </r>
       <r>    -2.3032     0.0000   282.0000 </r>
       <r>    -2.2125     0.0000   282.0000 </r>
       <r>    -2.1219     0.0000   282.0000 </r>
       <r>    -2.0312     0.0000   282.0000 </r>
       <r>    -1.9406     0.0000   282.0000 </r>
       <r>    -1.8499     0.0000   282.0000 </r>
       <r>    -1.7593     0.0000   282.0000 </r>
       <r>    -1.6686     0.0000   282.0000 </r>
       <r>    -1.5780     0.0000   282.0000 </r>
       <r>    -1.4873     0.0000   282.0000 </r>
       <r>    -1.3967     0.0000   282.0000 </r>
       <r>    -1.3060     0.0000   282.0000 </r>
       <r>    -1.2154     0.0000   282.0000 </r>
       <r>    -1.1247     0.0000   282.0000 </r>
       <r>    -1.0341     0.0000   282.0000 </r>
       <r>    -0.9434     0.0000   282.0000 </r>
       <r>    -0.8528     0.0000   282.0000 </r>
       <r>    -0.7621     0.0000   282.0000 </r>
       <r>    -0.6715     0.0000   282.0000 </r>
       <r>    -0.5808    59.6634   287.4085 </r>
       <r>    -0.4902     0.0000   288.0000 </r>
       <r>    -0.3995    65.2879   293.9183 </r>
       <r>    -0.3089     6.5829   294.5967 </r>
       <r>    -0.2182    18.1279   296.4120 </r>
       <r>    -0.1276     8.1389   297.4807 </r>
       <r>    -0.0369    26.8021   300.0000 </r>
       <r>     0.0537     7.2270   300.6551 </r>
       <r>     0.1444    35.0376   304.0140 </r>
       <r>     0.2350    19.8361   306.3089 </r>
       <r>     0.3257    42.2839   310.2707 </r>
       <r>     0.4163    58.1387   317.2387 </r>
       <r>     0.5070    46.8497   321.8929 </r>
       <r>     0.5976    50.0628   326.5810 </r>
       <r>     0.6883    31.9477   329.6316 </r>
       <r>     0.7789    40.2003   333.6517 </r>
       <r>     0.8696    53.6780   339.0423 </r>
       <r>     0.9602    37.8464   343.1743 </r>
       <r>     1.0509    40.9962   347.7291 </r>
       <r>     1.1415    66.9326   354.3462 </r>
       <r>     1.2321    53.3969   359.7149 </r>
       <r>     1.3228    51.9096   365.1843 </r>
       <r>     1.4134    55.5204   370.8447 </r>
       <r>     1.5041    80.2400   379.5058 </r>
       <r>     1.5947    86.0934   388.3288 </r>
       <r>     1.6854    68.8979   395.2962 </r>
       <r>     1.7760    66.2122   402.0280 </r>
       <r>     1.8667    75.1750   409.4051 </r>
       <r>     1.9573    53.5997   414.9706 </r>
       <r>     2.0480     5.4908   416.0000 </r>
       <r>     2.1386     0.0000   416.0000 </r>
       <r>     2.2293     0.0000   416.0000 </r>
       <r>     2.3199     0.0000   416.0000 </r>
       <r>     2.4106     0.0000   416.0000 </r>
       <r>     2.5012     0.0000   416.0000 </r>
       <r>     2.5919     0.0000   416.0000 </r>
       <r>     2.6825     0.0000   416.0000 </r>
       <r>     2.7732     0.0000   416.0000 </r>
       <r>     2.8638     0.0000   416.0000 </r>
       <r>     2.9545     0.0000   416.0000 </r>
       <r>     3.0451     0.0000   416.0000 </r>
       <r>     3.1358     0.0000   416.0000 </r>
       <r>     3.2264     0.0000   416.0000 </r>
      </set>
     </set>
    </array>
   </total>
  </dos>
 </calculation>
 <structure name="finalpos" >
  <crystal>
   <varray name="basis" >
    <v>      22.18056069       0.01577447       0.00000000 </v>
    <v>     -11.07648793      19.23987901       0.00000000 </v>
    <v>       0.00000000       0.00000000      20.00000000 </v>
   </varray>
   <i name="volume">   8538.52059611 </i>
   <varray name="rec_basis" >
    <v>       0.04506607       0.02594475       0.00000000 </v>
    <v>      -0.00003695       0.05195411       0.00000000 </v>
    <v>       0.00000000       0.00000000       0.05000000 </v>
   </varray>
  </crystal>
  <varray name="positions" >
   <v>       0.27497582       0.53748267       0.52983343 </v>
   <v>       0.46314183       0.73788240       0.53107657 </v>
   <v>       0.26238015       0.72572514       0.52992768 </v>
   <v>       0.36538164       0.83090294       0.52017347 </v>
   <v>       0.46559774       0.63485457       0.52027915 </v>
   <v>       0.16971036       0.53529241       0.51914002 </v>
   <v>       0.72571160       0.46259876       0.47128994 </v>
   <v>       0.53726754       0.26243000       0.47166302 </v>
   <v>       0.73784587       0.27414054       0.47314191 </v>
   <v>       0.63469632       0.16923062       0.48378000 </v>
   <v>       0.53510633       0.36557499       0.48135039 </v>
   <v>       0.83073207       0.46456124       0.48233694 </v>
   <v>       0.57665877       0.14756884       0.60450435 </v>
   <v>       0.50806494       0.08352428       0.65348924 </v>
   <v>       0.58757039       0.08382574       0.64671784 </v>
   <v>       0.47580012       0.89119277       0.63698035 </v>
   <v>       0.56373634       0.95865856       0.64492623 </v>
   <v>       0.49545405       0.97145668       0.67299419 </v>
   <v>       0.49702171       0.14645724       0.44983319 </v>
   <v>       0.51720784       0.16071728       0.53546097 </v>
   <v>       0.57010994       0.42154156       0.60253968 </v>
   <v>       0.57476962       0.48981074       0.65227296 </v>
   <v>       0.49551532       0.41079700       0.64478214 </v>
   <v>       0.41499439       0.52321893       0.63619529 </v>
   <v>       0.39417831       0.43506136       0.64303259 </v>
   <v>       0.47507233       0.50251064       0.67198330 </v>
   <v>       0.64984218       0.50330721       0.44892095 </v>
   <v>       0.64355512       0.48250813       0.53443913 </v>
   <v>       0.85287849       0.43031641       0.60413657 </v>
   <v>       0.91728801       0.42659293       0.65351187 </v>
   <v>       0.91657824       0.50542512       0.64555965 </v>
   <v>       0.10931745       0.58662032       0.63553646 </v>
   <v>       0.04155151       0.60698629       0.64272438 </v>
   <v>       0.02917595       0.52656629       0.67206867 </v>
   <v>       0.85424575       0.34967302       0.45085405 </v>
   <v>       0.84000963       0.35687004       0.53627437 </v>
   <v>       0.43577744       0.04169607       0.35998858 </v>
   <v>       0.52386932       0.10898758       0.36741396 </v>
   <v>       0.50369808       0.02856955       0.33141157 </v>
   <v>       0.42346616       0.85272223       0.40002301 </v>
   <v>       0.41187812       0.91619312       0.35810183 </v>
   <v>       0.49159881       0.91700799       0.35077022 </v>
   <v>       0.48385739       0.84024181       0.46887655 </v>
   <v>       0.50286399       0.85387207       0.55476039 </v>
   <v>       0.60635488       0.56540522       0.35927957 </v>
   <v>       0.58612434       0.47741705       0.36623461 </v>
   <v>       0.52566471       0.49756284       0.33039746 </v>
   <v>       0.43014363       0.57815854       0.39966318 </v>
   <v>       0.50500491       0.58935226       0.35759156 </v>
   <v>       0.42602057       0.51008501       0.35000196 </v>
   <v>       0.35690583       0.51719087       0.46799846 </v>
   <v>       0.35110817       0.49734596       0.55371232 </v>
   <v>       0.95886684       0.39259340       0.36066623 </v>
   <v>       0.89101634       0.41288136       0.36760368 </v>
   <v>       0.97115983       0.47287558       0.33100119 </v>
   <v>       0.14730549       0.57033574       0.39870449 </v>
   <v>       0.08408089       0.49464050       0.35766423 </v>
   <v>       0.08227453       0.57288365       0.34932139 </v>
   <v>       0.15988673       0.64343385       0.46695494 </v>
   <v>       0.14622289       0.64977978       0.55266318 </v>
   <v>       0.36625155       0.73985357       0.53044136 </v>
   <v>       0.29291273       0.69955995       0.52979462 </v>
   <v>       0.26057883       0.62702022       0.52991805 </v>
   <v>       0.30105280       0.59405563       0.52975405 </v>
   <v>       0.37365627       0.63415269       0.53038080 </v>
   <v>       0.40652964       0.70743057       0.53037938 </v>
   <v>       0.63402029       0.26018875       0.47230244 </v>
   <v>       0.70736057       0.30035189       0.47284194 </v>
   <v>       0.73983269       0.37289339       0.47212124 </v>
   <v>       0.69951611       0.40601672       0.47184751 </v>
   <v>       0.62690582       0.36606265       0.47144128 </v>
   <v>       0.59389752       0.29278061       0.47201008 </v>
   <v>       0.51504809       0.06908343       0.49572724 </v>
   <v>       0.52305163       0.04482970       0.55840966 </v>
   <v>       0.50629501       0.97495811       0.56525246 </v>
   <v>       0.55011963       0.09252818       0.61842540 </v>
   <v>       0.51053198       0.94748360       0.63322954 </v>
   <v>       0.53043852       0.14321130       0.48874956 </v>
   <v>       0.55420511       0.48492657       0.49455476 </v>
   <v>       0.52156122       0.47624829       0.55712653 </v>
   <v>       0.46847139       0.49316695       0.56412278 </v>
   <v>       0.54178304       0.44827908       0.61681668 </v>
   <v>       0.43636863       0.48824845       0.63202831 </v>
   <v>       0.61310192       0.46961421       0.48757540 </v>
   <v>       0.93130763       0.44579450       0.49554953 </v>
   <v>       0.95559220       0.47894392       0.55783519 </v>
   <v>       0.02538895       0.53230644       0.56418948 </v>
   <v>       0.90799471       0.45903242       0.61791718 </v>
   <v>       0.05293846       0.56495308       0.63180650 </v>
   <v>       0.85726183       0.38679064       0.48911307 </v>
   <v>       0.48493342       0.93126651       0.50871684 </v>
   <v>       0.47683633       0.95549657       0.44605851 </v>
   <v>       0.49353830       0.02533852       0.43922495 </v>
   <v>       0.48901153       0.05273328       0.37130871 </v>
   <v>       0.44966581       0.90774983       0.38609221 </v>
   <v>       0.46982727       0.85721080       0.51547756 </v>
   <v>       0.44652482       0.51531869       0.50780880 </v>
   <v>       0.47911281       0.52392005       0.44522186 </v>
   <v>       0.53226180       0.50709060       0.43824158 </v>
   <v>       0.56442254       0.51211151       0.37034553 </v>
   <v>       0.45876572       0.55169801       0.38548609 </v>
   <v>       0.38763236       0.53064139       0.51472453 </v>
   <v>       0.06894663       0.55403540       0.50752025 </v>
   <v>       0.04465036       0.52092504       0.44521810 </v>
   <v>       0.97489954       0.46746681       0.43890312 </v>
   <v>       0.94739977       0.43461182       0.37135736 </v>
   <v>       0.09217794       0.54099289       0.38507178 </v>
   <v>       0.14298929       0.61304372       0.51387618 </v>
   <v>       0.39696607       0.81168718       0.53217853 </v>
   <v>       0.41481828       0.60330836       0.53205825 </v>
   <v>       0.18865976       0.58592500       0.53131850 </v>
   <v>       0.60313448       0.18829516       0.47106295 </v>
   <v>       0.58588205       0.39708566       0.46949075 </v>
   <v>       0.81176630       0.41381951       0.47056393 </v>
  </varray>
 </structure>
</modeling>
