<?xml version="1.0" encoding="ISO-8859-1"?>
<modeling>
 <generator>
  <i name="program" type="string">vasp </i>
  <i name="version" type="string">5.4.4.18Apr17-6-g9f103f2a35  </i>
  <i name="subversion" type="string">(build Jun 07 2020 16:50:00) complex            parallel </i>
  <i name="platform" type="string">LinuxIFC </i>
  <i name="date" type="string">2023 02 18 </i>
  <i name="time" type="string">06:22:20 </i>
 </generator>
 <incar>
  <i type="string" name="SYSTEM">Simulation for cell shape cell volume r</i>
  <i type="int" name="ISTART">     1</i>
  <i type="string" name="PREC">high</i>
  <i type="string" name="ALGO">48</i>
  <i type="int" name="ICHARG">    11</i>
  <i type="int" name="NELM">   200</i>
  <i type="int" name="IBRION">    -1</i>
  <i name="EDIFF">      0.00001000</i>
  <i name="EDIFFG">     -0.01000000</i>
  <i type="int" name="NSW">     0</i>
  <i type="int" name="ISIF">     2</i>
  <i name="ENCUT">    500.00000000</i>
  <i name="POTIM">      0.30000000</i>
  <i type="string" name="LREAL">A</i>
  <i type="int" name="ISMEAR">     0</i>
  <i name="SIGMA">      0.01000000</i>
  <i type="int" name="NWRITE">     0</i>
  <i type="logical" name="LWAVE"> F  </i>
  <i type="logical" name="LCHARG"> F  </i>
  <v type="int" name="KPOINT_BSE">    -1     0     0     0</v>
  <i type="int" name="NELM">   200</i>
  <i type="string" name="GGA">PE</i>
 </incar>
 <structure name="primitive_cell" >
  <crystal>
   <varray name="basis" >
    <v>      23.13690353      -0.00004402       0.00000000 </v>
    <v>     -11.56846020      20.03937650       0.00000000 </v>
    <v>       0.00000000       0.00000000      20.00000000 </v>
   </varray>
   <i name="volume">   9272.97223331 </i>
   <varray name="rec_basis" >
    <v>       0.04322104       0.02495092       0.00000000 </v>
    <v>       0.00000009       0.04990181       0.00000000 </v>
    <v>       0.00000000       0.00000000       0.05000000 </v>
   </varray>
  </crystal>
  <varray name="positions" >
   <v>       0.49777795       0.20440618       0.42947019 </v>
   <v>       0.49714380       0.26197971       0.42999349 </v>
   <v>      -0.49950479       0.17976014       0.48959034 </v>
   <v>       0.49773550       0.28401849       0.38142764 </v>
   <v>       0.48775089       0.19926748      -0.45163894 </v>
   <v>      -0.49954256       0.29553727       0.48956496 </v>
   <v>      -0.46793074       0.13714778       0.49124800 </v>
   <v>      -0.38683150       0.26211832       0.48516668 </v>
   <v>       0.48747546       0.25710616      -0.45222296 </v>
   <v>      -0.39777312       0.17203033       0.48952922 </v>
   <v>      -0.35980990       0.24043188       0.48743865 </v>
   <v>       0.49787918       0.06770918       0.49389285 </v>
   <v>       0.44359668       0.04262143       0.49516637 </v>
   <v>      -0.36815764       0.36612713       0.48745146 </v>
   <v>      -0.46901994       0.36911114       0.49100490 </v>
   <v>       0.48007001       0.27504799      -0.40416637 </v>
   <v>      -0.39862378       0.40407689       0.48953105 </v>
   <v>      -0.36280440       0.13660993       0.49090574 </v>
   <v>      -0.31944343       0.39316057       0.48552802 </v>
   <v>      -0.46885932       0.03071635       0.49428166 </v>
   <v>       0.49723059       0.40480870       0.49342049 </v>
   <v>       0.44290523       0.37609587       0.49400302 </v>
   <v>      -0.39851581       0.06716762       0.49316089 </v>
   <v>      -0.25591851       0.32532369       0.48568454 </v>
   <v>      -0.28921760       0.17958601       0.48949988 </v>
   <v>       0.39473394      -0.05432404       0.49362123 </v>
   <v>      -0.27724429       0.18781735       0.38137576 </v>
   <v>      -0.36336494       0.47423253       0.49109127 </v>
   <v>      -0.23421906       0.37404287       0.48767010 </v>
   <v>      -0.25540884       0.20950604       0.42993155 </v>
   <v>       0.49383130      -0.04339885       0.49418967 </v>
   <v>       0.42348317      -0.07989746       0.49312665 </v>
   <v>      -0.46887132       0.47514884       0.49443474 </v>
   <v>      -0.36977588       0.04158864       0.49347946 </v>
   <v>      -0.25097552       0.20520814      -0.45220734 </v>
   <v>      -0.28917390      -0.49420922       0.48971876 </v>
   <v>      -0.39862908      -0.49159770       0.49372026 </v>
   <v>      -0.19774562       0.26764165       0.42936304 </v>
   <v>      -0.26127718      -0.49046554       0.42968772 </v>
   <v>      -0.26920891       0.18011888      -0.40407637 </v>
   <v>       0.39492507       0.42496464       0.49494197 </v>
   <v>      -0.16580347       0.40456045       0.48962531 </v>
   <v>      -0.17329002       0.29521837       0.48944291 </v>
   <v>      -0.20321500      -0.49018604       0.43033408 </v>
   <v>      -0.19301426       0.26318792      -0.45168572 </v>
   <v>      -0.25749054      -0.48258937      -0.45127403 </v>
   <v>      -0.47285450      -0.08033397       0.49357708 </v>
   <v>       0.49436861      -0.48751463       0.49456687 </v>
   <v>      -0.41857548      -0.05519140       0.49471224 </v>
   <v>      -0.18139889      -0.49013038       0.38179567 </v>
   <v>       0.38782623      -0.14934523       0.49071937 </v>
   <v>      -0.36944632      -0.43732474       0.49477547 </v>
   <v>      -0.17357210      -0.49456908       0.48988419 </v>
   <v>       0.42413184       0.47923695       0.49390076 </v>
   <v>      -0.19947969      -0.48248448      -0.45172820 </v>
   <v>      -0.13077075       0.36941982       0.49103917 </v>
   <v>      -0.13049162       0.47494000       0.49113035 </v>
   <v>       0.31422434      -0.19241298       0.48932302 </v>
   <v>       0.30235730      -0.20072488       0.38119096 </v>
   <v>      -0.17461583      -0.47601717      -0.40352328 </v>
   <v>       0.49304184      -0.14976322       0.49084462 </v>
   <v>       0.42287190      -0.18469266       0.48917621 </v>
   <v>      -0.47174428      -0.41717382       0.49367162 </v>
   <v>       0.28048624      -0.22239963       0.42973871 </v>
   <v>       0.29401860      -0.19294439      -0.40429105 </v>
   <v>      -0.41742021      -0.38844542       0.49425901 </v>
   <v>       0.38889264      -0.48657791       0.49119169 </v>
   <v>       0.27588859      -0.21805003      -0.45243053 </v>
   <v>      -0.06132653       0.40481080       0.49353798 </v>
   <v>      -0.06104634      -0.49118857       0.49340877 </v>
   <v>       0.31472224       0.48182072       0.48943890 </v>
   <v>      -0.03612116       0.37573065       0.49446395 </v>
   <v>      -0.47523254      -0.19225063       0.48924846 </v>
   <v>       0.38495603      -0.25308381       0.48697638 </v>
   <v>      -0.02446430       0.47505466       0.49423136 </v>
   <v>       0.49451566      -0.38146919       0.49123561 </v>
   <v>       0.28732063       0.47887303       0.42929854 </v>
   <v>       0.22287921      -0.28059336       0.42915139 </v>
   <v>       0.42412589      -0.41642953       0.48957481 </v>
   <v>      -0.03557835      -0.43687936       0.49406934 </v>
   <v>       0.28251090       0.46928010      -0.45181613 </v>
   <v>       0.21792604      -0.27605460      -0.45193535 </v>
   <v>      -0.47262595      -0.21710057       0.42922255 </v>
   <v>       0.41201508      -0.27473302       0.48480938 </v>
   <v>       0.19835756      -0.30814102       0.48922115 </v>
   <v>      -0.46215931      -0.21142735      -0.45195042 </v>
   <v>       0.22918406       0.47842597       0.42978051 </v>
   <v>       0.28097900      -0.33812597       0.48488685 </v>
   <v>       0.22437862       0.46897348      -0.45242339 </v>
   <v>      -0.47496087      -0.30790204       0.48963128 </v>
   <v>       0.39365137      -0.37849813       0.48727853 </v>
   <v>       0.04964487      -0.48800295       0.49416710 </v>
   <v>      -0.47241395      -0.29674516       0.38145761 </v>
   <v>       0.34495295      -0.40554602       0.48502063 </v>
   <v>       0.20779433       0.47903164       0.38118588 </v>
   <v>       0.06079134       0.42396811       0.49370910 </v>
   <v>      -0.47182195      -0.27458194       0.42994285 </v>
   <v>       0.19892224       0.48183434       0.48930636 </v>
   <v>       0.19903582       0.46166065      -0.40437580 </v>
   <v>      -0.46190428      -0.26927123      -0.45229855 </v>
   <v>       0.06123314      -0.38869905       0.49465674 </v>
   <v>      -0.45447474      -0.28706174      -0.40415591 </v>
   <v>       0.08626775       0.47828069       0.49314311 </v>
   <v>       0.15589039      -0.38233277       0.49081338 </v>
   <v>       0.25937360      -0.38683148       0.48694634 </v>
   <v>       0.08646003      -0.41775537       0.49352397 </v>
   <v>       0.19096079      -0.41742251       0.48914806 </v>
   <v>       0.15571741      -0.48780608       0.49068021 </v>
  </varray>
 </structure>
 <varray name="primitive_index" >
  <v type="int" >        1 </v>
  <v type="int" >       21 </v>
  <v type="int" >       33 </v>
  <v type="int" >       81 </v>
  <v type="int" >        4 </v>
  <v type="int" >       29 </v>
  <v type="int" >       35 </v>
  <v type="int" >       84 </v>
  <v type="int" >       28 </v>
  <v type="int" >       36 </v>
  <v type="int" >       14 </v>
  <v type="int" >       34 </v>
  <v type="int" >       89 </v>
  <v type="int" >       13 </v>
  <v type="int" >       19 </v>
  <v type="int" >       83 </v>
  <v type="int" >       27 </v>
  <v type="int" >       39 </v>
  <v type="int" >       79 </v>
  <v type="int" >       47 </v>
  <v type="int" >       20 </v>
  <v type="int" >       80 </v>
  <v type="int" >       40 </v>
  <v type="int" >       86 </v>
  <v type="int" >       56 </v>
  <v type="int" >       85 </v>
  <v type="int" >       93 </v>
  <v type="int" >       26 </v>
  <v type="int" >       15 </v>
  <v type="int" >       43 </v>
  <v type="int" >       48 </v>
  <v type="int" >       41 </v>
  <v type="int" >       24 </v>
  <v type="int" >       92 </v>
  <v type="int" >       55 </v>
  <v type="int" >       23 </v>
  <v type="int" >       25 </v>
  <v type="int" >        5 </v>
  <v type="int" >        2 </v>
  <v type="int" >       96 </v>
  <v type="int" >      105 </v>
  <v type="int" >       37 </v>
  <v type="int" >       44 </v>
  <v type="int" >       22 </v>
  <v type="int" >        7 </v>
  <v type="int" >        3 </v>
  <v type="int" >       73 </v>
  <v type="int" >       67 </v>
  <v type="int" >      106 </v>
  <v type="int" >       88 </v>
  <v type="int" >       42 </v>
  <v type="int" >       82 </v>
  <v type="int" >       38 </v>
  <v type="int" >       70 </v>
  <v type="int" >       30 </v>
  <v type="int" >       51 </v>
  <v type="int" >       31 </v>
  <v type="int" >       58 </v>
  <v type="int" >       94 </v>
  <v type="int" >       91 </v>
  <v type="int" >       72 </v>
  <v type="int" >       71 </v>
  <v type="int" >       59 </v>
  <v type="int" >       45 </v>
  <v type="int" >       97 </v>
  <v type="int" >       99 </v>
  <v type="int" >       69 </v>
  <v type="int" >       57 </v>
  <v type="int" >       50 </v>
  <v type="int" >       32 </v>
  <v type="int" >       66 </v>
  <v type="int" >       95 </v>
  <v type="int" >       64 </v>
  <v type="int" >       17 </v>
  <v type="int" >       49 </v>
  <v type="int" >       60 </v>
  <v type="int" >       10 </v>
  <v type="int" >        6 </v>
  <v type="int" >       68 </v>
  <v type="int" >       87 </v>
  <v type="int" >       12 </v>
  <v type="int" >        8 </v>
  <v type="int" >        9 </v>
  <v type="int" >      100 </v>
  <v type="int" >       46 </v>
  <v type="int" >       11 </v>
  <v type="int" >       65 </v>
  <v type="int" >      101 </v>
  <v type="int" >       77 </v>
  <v type="int" >       76 </v>
  <v type="int" >       16 </v>
  <v type="int" >       52 </v>
  <v type="int" >      103 </v>
  <v type="int" >       98 </v>
  <v type="int" >      104 </v>
  <v type="int" >      102 </v>
  <v type="int" >       63 </v>
  <v type="int" >       78 </v>
  <v type="int" >      108 </v>
  <v type="int" >       75 </v>
  <v type="int" >       90 </v>
  <v type="int" >      107 </v>
  <v type="int" >       61 </v>
  <v type="int" >       53 </v>
  <v type="int" >       18 </v>
  <v type="int" >       54 </v>
  <v type="int" >       74 </v>
  <v type="int" >       62 </v>
 </varray>
 <kpoints>
  <generation param="listgenerated">
   <i name="divisions" type="int">      20 </i>
   <v>       0.00000000       0.00000000       0.00000000 </v>
   <v>       0.50000000       0.00000000       0.00000000 </v>
   <v>       0.33333333       0.33333333       0.00000000 </v>
   <v>       0.00000000       0.00000000       0.00000000 </v>
  </generation>
  <varray name="kpointlist" >
   <v>       0.00000000       0.00000000       0.00000000 </v>
   <v>       0.02631579       0.00000000       0.00000000 </v>
   <v>       0.05263158       0.00000000       0.00000000 </v>
   <v>       0.07894737       0.00000000       0.00000000 </v>
   <v>       0.10526316       0.00000000       0.00000000 </v>
   <v>       0.13157895       0.00000000       0.00000000 </v>
   <v>       0.15789474       0.00000000       0.00000000 </v>
   <v>       0.18421053       0.00000000       0.00000000 </v>
   <v>       0.21052632       0.00000000       0.00000000 </v>
   <v>       0.23684211       0.00000000       0.00000000 </v>
   <v>       0.26315789       0.00000000       0.00000000 </v>
   <v>       0.28947368       0.00000000       0.00000000 </v>
   <v>       0.31578947       0.00000000       0.00000000 </v>
   <v>       0.34210526       0.00000000       0.00000000 </v>
   <v>       0.36842105       0.00000000       0.00000000 </v>
   <v>       0.39473684       0.00000000       0.00000000 </v>
   <v>       0.42105263       0.00000000       0.00000000 </v>
   <v>       0.44736842       0.00000000       0.00000000 </v>
   <v>       0.47368421       0.00000000       0.00000000 </v>
   <v>       0.50000000       0.00000000       0.00000000 </v>
   <v>       0.50000000       0.00000000       0.00000000 </v>
   <v>       0.49122807       0.01754386       0.00000000 </v>
   <v>       0.48245614       0.03508772       0.00000000 </v>
   <v>       0.47368421       0.05263158       0.00000000 </v>
   <v>       0.46491228       0.07017544       0.00000000 </v>
   <v>       0.45614035       0.08771930       0.00000000 </v>
   <v>       0.44736842       0.10526316       0.00000000 </v>
   <v>       0.43859649       0.12280702       0.00000000 </v>
   <v>       0.42982456       0.14035088       0.00000000 </v>
   <v>       0.42105263       0.15789474       0.00000000 </v>
   <v>       0.41228070       0.17543860       0.00000000 </v>
   <v>       0.40350877       0.19298246       0.00000000 </v>
   <v>       0.39473684       0.21052632       0.00000000 </v>
   <v>       0.38596491       0.22807018       0.00000000 </v>
   <v>       0.37719298       0.24561404       0.00000000 </v>
   <v>       0.36842105       0.26315789       0.00000000 </v>
   <v>       0.35964912       0.28070175       0.00000000 </v>
   <v>       0.35087719       0.29824561       0.00000000 </v>
   <v>       0.34210526       0.31578947       0.00000000 </v>
   <v>       0.33333333       0.33333333       0.00000000 </v>
   <v>       0.33333333       0.33333333       0.00000000 </v>
   <v>       0.31578947       0.31578947       0.00000000 </v>
   <v>       0.29824561       0.29824561       0.00000000 </v>
   <v>       0.28070175       0.28070175       0.00000000 </v>
   <v>       0.26315789       0.26315789       0.00000000 </v>
   <v>       0.24561404       0.24561404       0.00000000 </v>
   <v>       0.22807018       0.22807018       0.00000000 </v>
   <v>       0.21052632       0.21052632       0.00000000 </v>
   <v>       0.19298246       0.19298246       0.00000000 </v>
   <v>       0.17543860       0.17543860       0.00000000 </v>
   <v>       0.15789474       0.15789474       0.00000000 </v>
   <v>       0.14035088       0.14035088       0.00000000 </v>
   <v>       0.12280702       0.12280702       0.00000000 </v>
   <v>       0.10526316       0.10526316       0.00000000 </v>
   <v>       0.08771930       0.08771930       0.00000000 </v>
   <v>       0.07017544       0.07017544       0.00000000 </v>
   <v>       0.05263158       0.05263158       0.00000000 </v>
   <v>       0.03508772       0.03508772       0.00000000 </v>
   <v>       0.01754386       0.01754386       0.00000000 </v>
   <v>       0.00000000       0.00000000       0.00000000 </v>
  </varray>
  <varray name="weights" >
   <v>       0.01666667 </v>
   <v>       0.01666667 </v>
   <v>       0.01666667 </v>
   <v>       0.01666667 </v>
   <v>       0.01666667 </v>
   <v>       0.01666667 </v>
   <v>       0.01666667 </v>
   <v>       0.01666667 </v>
   <v>       0.01666667 </v>
   <v>       0.01666667 </v>
   <v>       0.01666667 </v>
   <v>       0.01666667 </v>
   <v>       0.01666667 </v>
   <v>       0.01666667 </v>
   <v>       0.01666667 </v>
   <v>       0.01666667 </v>
   <v>       0.01666667 </v>
   <v>       0.01666667 </v>
   <v>       0.01666667 </v>
   <v>       0.01666667 </v>
   <v>       0.01666667 </v>
   <v>       0.01666667 </v>
   <v>       0.01666667 </v>
   <v>       0.01666667 </v>
   <v>       0.01666667 </v>
   <v>       0.01666667 </v>
   <v>       0.01666667 </v>
   <v>       0.01666667 </v>
   <v>       0.01666667 </v>
   <v>       0.01666667 </v>
   <v>       0.01666667 </v>
   <v>       0.01666667 </v>
   <v>       0.01666667 </v>
   <v>       0.01666667 </v>
   <v>       0.01666667 </v>
   <v>       0.01666667 </v>
   <v>       0.01666667 </v>
   <v>       0.01666667 </v>
   <v>       0.01666667 </v>
   <v>       0.01666667 </v>
   <v>       0.01666667 </v>
   <v>       0.01666667 </v>
   <v>       0.01666667 </v>
   <v>       0.01666667 </v>
   <v>       0.01666667 </v>
   <v>       0.01666667 </v>
   <v>       0.01666667 </v>
   <v>       0.01666667 </v>
   <v>       0.01666667 </v>
   <v>       0.01666667 </v>
   <v>       0.01666667 </v>
   <v>       0.01666667 </v>
   <v>       0.01666667 </v>
   <v>       0.01666667 </v>
   <v>       0.01666667 </v>
   <v>       0.01666667 </v>
   <v>       0.01666667 </v>
   <v>       0.01666667 </v>
   <v>       0.01666667 </v>
   <v>       0.01666667 </v>
  </varray>
 </kpoints>
 <parameters>
  <separator name="general" >
   <i type="string" name="SYSTEM">Simulation for cell shape cell volume r</i>
   <i type="logical" name="LCOMPAT"> F  </i>
  </separator>
  <separator name="electronic" >
   <i type="string" name="PREC">high</i>
   <i name="ENMAX">    500.00000000</i>
   <i name="ENAUG">    644.87300000</i>
   <i name="EDIFF">      0.00001000</i>
   <i type="int" name="IALGO">    38</i>
   <i type="int" name="IWAVPR">    10</i>
   <i type="int" name="NBANDS">   240</i>
   <i name="NELECT">    366.00000000</i>
   <i type="int" name="TURBO">     0</i>
   <i type="int" name="IRESTART">     0</i>
   <i type="int" name="NREBOOT">     0</i>
   <i type="int" name="NMIN">     0</i>
   <i name="EREF">      0.00000000</i>
   <separator name="electronic smearing" >
    <i type="int" name="ISMEAR">     0</i>
    <i name="SIGMA">      0.01000000</i>
    <i name="KSPACING">      0.50000000</i>
    <i type="logical" name="KGAMMA"> T  </i>
   </separator>
   <separator name="electronic projectors" >
    <i type="logical" name="LREAL"> T  </i>
    <v name="ROPT">     -0.00040000     -0.00040000     -0.00040000     -0.00040000</v>
    <i type="int" name="LMAXPAW">  -100</i>
    <i type="int" name="LMAXMIX">     2</i>
    <i type="logical" name="NLSPLINE"> F  </i>
   </separator>
   <separator name="electronic startup" >
    <i type="int" name="ISTART">     1</i>
    <i type="int" name="ICHARG">    11</i>
    <i type="int" name="INIWAV">     1</i>
   </separator>
   <separator name="electronic spin" >
    <i type="int" name="ISPIN">     1</i>
    <i type="logical" name="LNONCOLLINEAR"> F  </i>
    <v name="MAGMOM">      1.00000000      1.00000000      1.00000000      1.00000000      1.00000000      1.00000000      1.00000000      1.00000000      1.00000000      1.00000000      1.00000000      1.00000000      1.00000000      1.00000000      1.00000000      1.00000000      1.00000000      1.00000000      1.00000000      1.00000000
      1.00000000      1.00000000      1.00000000      1.00000000      1.00000000      1.00000000      1.00000000      1.00000000      1.00000000      1.00000000      1.00000000      1.00000000      1.00000000      1.00000000      1.00000000      1.00000000      1.00000000      1.00000000      1.00000000      1.00000000
      1.00000000      1.00000000      1.00000000      1.00000000      1.00000000      1.00000000      1.00000000      1.00000000      1.00000000      1.00000000      1.00000000      1.00000000      1.00000000      1.00000000      1.00000000      1.00000000      1.00000000      1.00000000      1.00000000      1.00000000
      1.00000000      1.00000000      1.00000000      1.00000000      1.00000000      1.00000000      1.00000000      1.00000000      1.00000000      1.00000000      1.00000000      1.00000000      1.00000000      1.00000000      1.00000000      1.00000000      1.00000000      1.00000000      1.00000000      1.00000000
      1.00000000      1.00000000      1.00000000      1.00000000      1.00000000      1.00000000      1.00000000      1.00000000      1.00000000      1.00000000      1.00000000      1.00000000      1.00000000      1.00000000      1.00000000      1.00000000      1.00000000      1.00000000      1.00000000      1.00000000
      1.00000000      1.00000000      1.00000000      1.00000000      1.00000000      1.00000000      1.00000000      1.00000000</v>
    <i name="NUPDOWN">     -1.00000000</i>
    <i type="logical" name="LSORBIT"> F  </i>
    <v name="SAXIS">      0.00000000      0.00000000      1.00000000</v>
    <i type="logical" name="LSPIRAL"> F  </i>
    <v name="QSPIRAL">      0.00000000      0.00000000      0.00000000</v>
    <i type="logical" name="LZEROZ"> F  </i>
   </separator>
   <separator name="electronic exchange-correlation" >
    <i type="logical" name="LASPH"> F  </i>
    <i type="logical" name="LMETAGGA"> F  </i>
   </separator>
   <separator name="electronic convergence" >
    <i type="int" name="NELM">   200</i>
    <i type="int" name="NELMDL">     0</i>
    <i type="int" name="NELMIN">     2</i>
    <i name="ENINI">    500.00000000</i>
    <separator name="electronic convergence detail" >
     <i type="logical" name="LDIAG"> T  </i>
     <i type="logical" name="LSUBROT"> F  </i>
     <i name="WEIMIN">      0.00000000</i>
     <i name="EBREAK">      0.00000001</i>
     <i name="DEPER">      0.30000000</i>
     <i type="int" name="NRMM">     4</i>
     <i name="TIME">      0.40000000</i>
    </separator>
   </separator>
   <separator name="electronic mixer" >
    <i name="AMIX">      0.40000000</i>
    <i name="BMIX">      1.00000000</i>
    <i name="AMIN">      0.10000000</i>
    <i name="AMIX_MAG">      1.60000000</i>
    <i name="BMIX_MAG">      1.00000000</i>
    <separator name="electronic mixer details" >
     <i type="int" name="IMIX">     4</i>
     <i type="logical" name="MIXFIRST"> F  </i>
     <i type="int" name="MAXMIX">   -45</i>
     <i name="WC">    100.00000000</i>
     <i type="int" name="INIMIX">     1</i>
     <i type="int" name="MIXPRE">     1</i>
     <i type="int" name="MREMOVE">     5</i>
    </separator>
   </separator>
   <separator name="electronic dipolcorrection" >
    <i type="logical" name="LDIPOL"> F  </i>
    <i type="logical" name="LMONO"> F  </i>
    <i type="int" name="IDIPOL">     0</i>
    <i name="EPSILON">      1.00000000</i>
    <v name="DIPOL">   -100.00000000   -100.00000000   -100.00000000</v>
    <i name="EFIELD">      0.00000000</i>
   </separator>
  </separator>
  <separator name="grids" >
   <i type="int" name="NGX">   180</i>
   <i type="int" name="NGY">   180</i>
   <i type="int" name="NGZ">   150</i>
   <i type="int" name="NGXF">   256</i>
   <i type="int" name="NGYF">   256</i>
   <i type="int" name="NGZF">   224</i>
   <i type="logical" name="ADDGRID"> F  </i>
  </separator>
  <separator name="ionic" >
   <i type="int" name="NSW">     0</i>
   <i type="int" name="IBRION">    -1</i>
   <i type="int" name="MDALGO">     0</i>
   <i type="int" name="ISIF">     2</i>
   <i name="PSTRESS">      0.00000000</i>
   <i name="EDIFFG">     -0.01000000</i>
   <i type="int" name="NFREE">     0</i>
   <i name="POTIM">      0.30000000</i>
   <i name="SMASS">     -3.00000000</i>
   <i name="SCALEE">      1.00000000</i>
  </separator>
  <separator name="ionic md" >
   <i name="TEBEG">      0.00010000</i>
   <i name="TEEND">      0.00010000</i>
   <i type="int" name="NBLOCK">     1</i>
   <i type="int" name="KBLOCK">     1</i>
   <i type="int" name="NPACO">   256</i>
   <i name="APACO">     16.00000000</i>
  </separator>
  <separator name="symmetry" >
   <i type="int" name="ISYM">     2</i>
   <i name="SYMPREC">      0.00001000</i>
  </separator>
  <separator name="dos" >
   <i type="int" name="LORBIT">     0</i>
   <v name="RWIGS">     -1.00000000     -1.00000000     -1.00000000     -1.00000000</v>
   <i type="int" name="NEDOS">   301</i>
   <i name="EMIN">     10.00000000</i>
   <i name="EMAX">    -10.00000000</i>
   <i name="EFERMI">      0.00000000</i>
  </separator>
  <separator name="writing" >
   <i type="int" name="NWRITE">     0</i>
   <i type="logical" name="LWAVE"> F  </i>
   <i type="logical" name="LDOWNSAMPLE"> F  </i>
   <i type="logical" name="LCHARG"> F  </i>
   <i type="logical" name="LPARD"> F  </i>
   <i type="logical" name="LVTOT"> F  </i>
   <i type="logical" name="LVHAR"> F  </i>
   <i type="logical" name="LELF"> F  </i>
   <i type="logical" name="LOPTICS"> F  </i>
   <v name="STM">      0.00000000      0.00000000      0.00000000      0.00000000      0.00000000      0.00000000      0.00000000</v>
  </separator>
  <separator name="performance" >
   <i type="int" name="NPAR">    16</i>
   <i type="int" name="NSIM">     4</i>
   <i type="int" name="NBLK">    -1</i>
   <i type="logical" name="LPLANE"> T  </i>
   <i type="logical" name="LSCALAPACK"> T  </i>
   <i type="logical" name="LSCAAWARE"> F  </i>
   <i type="logical" name="LSCALU"> F  </i>
   <i type="logical" name="LASYNC"> F  </i>
   <i type="logical" name="LORBITALREAL"> F  </i>
  </separator>
  <separator name="miscellaneous" >
   <i type="int" name="IDIOT">     3</i>
   <i type="int" name="ISPECIAL">     0</i>
   <i type="logical" name="LMUSIC"> F  </i>
   <v name="POMASS">     14.00100000     16.00000000     12.01100000      1.00000000</v>
   <v name="DARWINR">      0.00000000      0.00000000      0.00000000      0.00000000</v>
   <v name="DARWINV">      1.00000000      1.00000000      1.00000000      1.00000000</v>
   <i type="logical" name="LCORR"> T  </i>
  </separator>
  <i type="logical" name="GGA_COMPAT"> T  </i>
  <i type="logical" name="LBERRY"> F  </i>
  <i type="int" name="ICORELEVEL">     0</i>
  <i type="logical" name="LDAU"> F  </i>
  <i type="int" name="I_CONSTRAINED_M">     0</i>
  <separator name="electronic exchange-correlation" >
   <i type="string" name="GGA">PE</i>
   <i type="int" name="VOSKOWN">     0</i>
   <i type="logical" name="LHFCALC"> F  </i>
   <i type="string" name="PRECFOCK"></i>
   <i type="logical" name="LSYMGRAD"> F  </i>
   <i type="logical" name="LHFONE"> F  </i>
   <i type="logical" name="LRHFCALC"> F  </i>
   <i type="logical" name="LTHOMAS"> F  </i>
   <i type="logical" name="LMODELHF"> F  </i>
   <i name="ENCUT4O">     -1.00000000</i>
   <i type="int" name="EXXOEP">     0</i>
   <i type="int" name="FOURORBIT">     0</i>
   <i name="AEXX">      0.00000000</i>
   <i name="HFALPHA">      0.00000000</i>
   <i name="MCALPHA">      0.00000000</i>
   <i name="ALDAX">      1.00000000</i>
   <i name="AGGAX">      1.00000000</i>
   <i name="ALDAC">      1.00000000</i>
   <i name="AGGAC">      1.00000000</i>
   <i type="int" name="NKREDX">     1</i>
   <i type="int" name="NKREDY">     1</i>
   <i type="int" name="NKREDZ">     1</i>
   <i type="logical" name="SHIFTRED"> F  </i>
   <i type="logical" name="ODDONLY"> F  </i>
   <i type="logical" name="EVENONLY"> F  </i>
   <i type="int" name="LMAXFOCK">     0</i>
   <i type="int" name="NMAXFOCKAE">     0</i>
   <i type="logical" name="LFOCKAEDFT"> F  </i>
   <i name="HFSCREEN">      0.00000000</i>
   <i name="HFSCREENC">      0.00000000</i>
   <i type="int" name="NBANDSGWLOW">     0</i>
  </separator>
  <separator name="vdW DFT" >
   <i type="logical" name="LUSE_VDW"> F  </i>
   <i name="Zab_VDW">     -0.84910000</i>
   <i name="PARAM1">      0.12340000</i>
   <i name="PARAM2">      1.00000000</i>
   <i name="PARAM3">      0.00000000</i>
  </separator>
  <separator name="model GW" >
   <i type="int" name="MODEL_GW">     0</i>
   <i name="MODEL_EPS0">     51.51651241</i>
   <i name="MODEL_ALPHA">      1.00000000</i>
  </separator>
  <separator name="linear response parameters" >
   <i type="logical" name="LEPSILON"> F  </i>
   <i type="logical" name="LRPA"> F  </i>
   <i type="logical" name="LNABLA"> F  </i>
   <i type="logical" name="LVEL"> F  </i>
   <i type="int" name="KINTER">     0</i>
   <i name="CSHIFT">      0.10000000</i>
   <i name="OMEGAMAX">     -1.00000000</i>
   <i name="DEG_THRESHOLD">      0.00200000</i>
   <i name="RTIME">     -0.10000000</i>
   <i name="WPLASMAI">      0.00000000</i>
   <v name="DFIELD">      0.00000000      0.00000000      0.00000000</v>
   <v name="WPLASMA">      0.00000000      0.00000000      0.00000000      0.00000000      0.00000000      0.00000000      0.00000000      0.00000000      0.00000000</v>
  </separator>
  <separator name="orbital magnetization" >
   <i type="logical" name="NUCIND"> F  </i>
   <v name="MAGPOS">      0.00000000      0.00000000      0.00000000</v>
   <i type="logical" name="LNICSALL"> T  </i>
   <i type="logical" name="ORBITALMAG"> F  </i>
   <i type="logical" name="LMAGBLOCH"> F  </i>
   <i type="logical" name="LCHIMAG"> F  </i>
   <i type="logical" name="LGAUGE"> T  </i>
   <i type="int" name="MAGATOM">     0</i>
   <v name="MAGDIPOL">      0.00000000      0.00000000      0.00000000</v>
   <v name="AVECCONST">      0.00000000      0.00000000      0.00000000</v>
  </separator>
  <separator name="response functions" >
   <i type="logical" name="LADDER"> F  </i>
   <i type="logical" name="LRPAFORCE"> F  </i>
   <i type="logical" name="LFXC"> F  </i>
   <i type="logical" name="LHARTREE"> T  </i>
   <i type="int" name="IBSE">     0</i>
   <v type="int" name="KPOINT">    -1     0     0     0</v>
   <i type="logical" name="LTCTE"> F  </i>
   <i type="logical" name="LTETE"> F  </i>
   <i type="logical" name="LTRIPLET"> F  </i>
   <i type="logical" name="LFXCEPS"> F  </i>
   <i type="logical" name="LFXHEG"> F  </i>
   <i type="int" name="NATURALO">     2</i>
   <i type="logical" name="L2ORDER"> F  </i>
   <i type="logical" name="LMP2LT"> F  </i>
   <i type="logical" name="LUSEW"> F  </i>
   <i name="ENCUTGW">     -2.00000000</i>
   <i name="ENCUTGWSOFT">     -2.00000000</i>
   <i name="ENCUTLF">     -1.00000000</i>
   <i type="int" name="LMAXMP2">    -1</i>
   <i name="SCISSOR">      0.00000000</i>
   <i type="int" name="NOMEGA">     0</i>
   <i type="int" name="NOMEGAR">     0</i>
   <i type="int" name="NBANDSGW">    -1</i>
   <i type="int" name="NBANDSO">    -1</i>
   <i type="int" name="NBANDSV">    -1</i>
   <i type="int" name="NELM">   200</i>
   <i type="int" name="NELMHF">     1</i>
   <i type="int" name="DIM">     3</i>
   <i type="int" name="ANTIRES">     0</i>
   <i name="OMEGAMAX">    -30.00000000</i>
   <i name="OMEGAMIN">    -30.00000000</i>
   <i name="OMEGATL">   -200.00000000</i>
   <i type="int" name="OMEGAGRID">   140</i>
   <i name="CSHIFT">     -0.10000000</i>
   <i type="logical" name="SELFENERGY"> F  </i>
   <i type="logical" name="LSPECTRAL"> F  </i>
   <i type="logical" name="LSPECTRALGW"> F  </i>
   <i type="logical" name="LSINGLES"> F  </i>
   <i type="logical" name="LFERMIGW"> F  </i>
   <i type="logical" name="ODDONLYGW"> F  </i>
   <i type="logical" name="EVENONLYGW"> F  </i>
   <i type="int" name="NKREDLFX">     1</i>
   <i type="int" name="NKREDLFY">     1</i>
   <i type="int" name="NKREDLFZ">     1</i>
   <i type="int" name="MAXMEM">  2800</i>
   <i type="int" name="TELESCOPE">     0</i>
   <i type="int" name="TAUPAR">     1</i>
   <i type="int" name="OMEGAPAR">    -1</i>
   <i name="LAMBDA">      1.00000000</i>
  </separator>
  <separator name="External order field" >
   <i name="OFIELD_KAPPA">      0.00000000</i>
   <v name="OFIELD_K">      0.00000000      0.00000000      0.00000000</v>
   <i name="OFIELD_Q6_NEAR">      0.00000000</i>
   <i name="OFIELD_Q6_FAR">      0.00000000</i>
   <i name="OFIELD_A">      0.00000000</i>
  </separator>
  <separator name="solvation model" >
   <i type="logical" name="LSOL"> F  </i>
  </separator>
 </parameters>
 <atominfo>
  <atoms>     108 </atoms>
  <types>       4 </types>
  <array name="atoms" >
   <dimension dim="1">ion</dimension>
   <field type="string">element</field>
   <field type="int">atomtype</field>
   <set>
    <rc><c>N </c><c>   1</c></rc>
    <rc><c>N </c><c>   1</c></rc>
    <rc><c>N </c><c>   1</c></rc>
    <rc><c>N </c><c>   1</c></rc>
    <rc><c>N </c><c>   1</c></rc>
    <rc><c>N </c><c>   1</c></rc>
    <rc><c>N </c><c>   1</c></rc>
    <rc><c>N </c><c>   1</c></rc>
    <rc><c>N </c><c>   1</c></rc>
    <rc><c>N </c><c>   1</c></rc>
    <rc><c>N </c><c>   1</c></rc>
    <rc><c>N </c><c>   1</c></rc>
    <rc><c>O </c><c>   2</c></rc>
    <rc><c>O </c><c>   2</c></rc>
    <rc><c>O </c><c>   2</c></rc>
    <rc><c>O </c><c>   2</c></rc>
    <rc><c>O </c><c>   2</c></rc>
    <rc><c>O </c><c>   2</c></rc>
    <rc><c>C </c><c>   3</c></rc>
    <rc><c>C </c><c>   3</c></rc>
    <rc><c>C </c><c>   3</c></rc>
    <rc><c>C </c><c>   3</c></rc>
    <rc><c>C </c><c>   3</c></rc>
    <rc><c>C </c><c>   3</c></rc>
    <rc><c>C </c><c>   3</c></rc>
    <rc><c>C </c><c>   3</c></rc>
    <rc><c>C </c><c>   3</c></rc>
    <rc><c>C </c><c>   3</c></rc>
    <rc><c>C </c><c>   3</c></rc>
    <rc><c>C </c><c>   3</c></rc>
    <rc><c>C </c><c>   3</c></rc>
    <rc><c>C </c><c>   3</c></rc>
    <rc><c>C </c><c>   3</c></rc>
    <rc><c>C </c><c>   3</c></rc>
    <rc><c>C </c><c>   3</c></rc>
    <rc><c>C </c><c>   3</c></rc>
    <rc><c>C </c><c>   3</c></rc>
    <rc><c>C </c><c>   3</c></rc>
    <rc><c>C </c><c>   3</c></rc>
    <rc><c>C </c><c>   3</c></rc>
    <rc><c>C </c><c>   3</c></rc>
    <rc><c>C </c><c>   3</c></rc>
    <rc><c>C </c><c>   3</c></rc>
    <rc><c>C </c><c>   3</c></rc>
    <rc><c>C </c><c>   3</c></rc>
    <rc><c>C </c><c>   3</c></rc>
    <rc><c>C </c><c>   3</c></rc>
    <rc><c>C </c><c>   3</c></rc>
    <rc><c>C </c><c>   3</c></rc>
    <rc><c>C </c><c>   3</c></rc>
    <rc><c>C </c><c>   3</c></rc>
    <rc><c>C </c><c>   3</c></rc>
    <rc><c>C </c><c>   3</c></rc>
    <rc><c>C </c><c>   3</c></rc>
    <rc><c>C </c><c>   3</c></rc>
    <rc><c>C </c><c>   3</c></rc>
    <rc><c>C </c><c>   3</c></rc>
    <rc><c>C </c><c>   3</c></rc>
    <rc><c>C </c><c>   3</c></rc>
    <rc><c>C </c><c>   3</c></rc>
    <rc><c>C </c><c>   3</c></rc>
    <rc><c>C </c><c>   3</c></rc>
    <rc><c>C </c><c>   3</c></rc>
    <rc><c>C </c><c>   3</c></rc>
    <rc><c>C </c><c>   3</c></rc>
    <rc><c>C </c><c>   3</c></rc>
    <rc><c>C </c><c>   3</c></rc>
    <rc><c>C </c><c>   3</c></rc>
    <rc><c>C </c><c>   3</c></rc>
    <rc><c>C </c><c>   3</c></rc>
    <rc><c>C </c><c>   3</c></rc>
    <rc><c>C </c><c>   3</c></rc>
    <rc><c>C </c><c>   3</c></rc>
    <rc><c>C </c><c>   3</c></rc>
    <rc><c>C </c><c>   3</c></rc>
    <rc><c>C </c><c>   3</c></rc>
    <rc><c>C </c><c>   3</c></rc>
    <rc><c>C </c><c>   3</c></rc>
    <rc><c>H </c><c>   4</c></rc>
    <rc><c>H </c><c>   4</c></rc>
    <rc><c>H </c><c>   4</c></rc>
    <rc><c>H </c><c>   4</c></rc>
    <rc><c>H </c><c>   4</c></rc>
    <rc><c>H </c><c>   4</c></rc>
    <rc><c>H </c><c>   4</c></rc>
    <rc><c>H </c><c>   4</c></rc>
    <rc><c>H </c><c>   4</c></rc>
    <rc><c>H </c><c>   4</c></rc>
    <rc><c>H </c><c>   4</c></rc>
    <rc><c>H </c><c>   4</c></rc>
    <rc><c>H </c><c>   4</c></rc>
    <rc><c>H </c><c>   4</c></rc>
    <rc><c>H </c><c>   4</c></rc>
    <rc><c>H </c><c>   4</c></rc>
    <rc><c>H </c><c>   4</c></rc>
    <rc><c>H </c><c>   4</c></rc>
    <rc><c>H </c><c>   4</c></rc>
    <rc><c>H </c><c>   4</c></rc>
    <rc><c>H </c><c>   4</c></rc>
    <rc><c>H </c><c>   4</c></rc>
    <rc><c>H </c><c>   4</c></rc>
    <rc><c>H </c><c>   4</c></rc>
    <rc><c>H </c><c>   4</c></rc>
    <rc><c>H </c><c>   4</c></rc>
    <rc><c>H </c><c>   4</c></rc>
    <rc><c>H </c><c>   4</c></rc>
    <rc><c>H </c><c>   4</c></rc>
    <rc><c>H </c><c>   4</c></rc>
   </set>
  </array>
  <array name="atomtypes" >
   <dimension dim="1">type</dimension>
   <field type="int">atomspertype</field>
   <field type="string">element</field>
   <field>mass</field>
   <field>valence</field>
   <field type="string">pseudopotential</field>
   <set>
    <rc><c>  12</c><c>N </c><c>     14.00100000</c><c>      5.00000000</c><c>  PAW_PBE N 08Apr2002                   </c></rc>
    <rc><c>   6</c><c>O </c><c>     16.00000000</c><c>      6.00000000</c><c>  PAW_PBE O 08Apr2002                   </c></rc>
    <rc><c>  60</c><c>C </c><c>     12.01100000</c><c>      4.00000000</c><c>  PAW_PBE C 08Apr2002                   </c></rc>
    <rc><c>  30</c><c>H </c><c>      1.00000000</c><c>      1.00000000</c><c>  PAW_PBE H 15Jun2001                   </c></rc>
   </set>
  </array>
 </atominfo>
 <structure name="initialpos" >
  <crystal>
   <varray name="basis" >
    <v>      23.13690353      -0.00004402       0.00000000 </v>
    <v>     -11.56846020      20.03937650       0.00000000 </v>
    <v>       0.00000000       0.00000000      20.00000000 </v>
   </varray>
   <i name="volume">   9272.97223331 </i>
   <varray name="rec_basis" >
    <v>       0.04322104       0.02495092       0.00000000 </v>
    <v>       0.00000009       0.04990181       0.00000000 </v>
    <v>       0.00000000       0.00000000       0.05000000 </v>
   </varray>
  </crystal>
  <varray name="positions" >
   <v>       0.49777795       0.20440618       0.42947019 </v>
   <v>       0.73872282       0.50953446       0.42968772 </v>
   <v>       0.74250946       0.51741063       0.54872597 </v>
   <v>       0.48775089       0.19926748       0.54836106 </v>
   <v>       0.80225438       0.26764165       0.42936304 </v>
   <v>       0.22287921       0.71940664       0.42915139 </v>
   <v>       0.80698574       0.26318792       0.54831428 </v>
   <v>       0.21792604       0.72394540       0.54806465 </v>
   <v>       0.52737405       0.78289943       0.42922255 </v>
   <v>       0.28732063       0.47887303       0.42929854 </v>
   <v>       0.53784069       0.78857265       0.54804958 </v>
   <v>       0.28251090       0.46928010       0.54818387 </v>
   <v>       0.63184236       0.36612713       0.48745146 </v>
   <v>       0.64019010       0.24043188       0.48743865 </v>
   <v>       0.76578094       0.37404287       0.48767010 </v>
   <v>       0.39365137       0.62150187       0.48727853 </v>
   <v>       0.38495603       0.74691619       0.48697638 </v>
   <v>       0.25937360       0.61316852       0.48694634 </v>
   <v>       0.53098006       0.36911114       0.49100490 </v>
   <v>       0.49723059       0.40480870       0.49342049 </v>
   <v>       0.49714380       0.26197971       0.42999349 </v>
   <v>       0.79678500       0.50981396       0.43033408 </v>
   <v>       0.71082610       0.50579078       0.48971876 </v>
   <v>       0.53112868       0.47514884       0.49443474 </v>
   <v>       0.60137092       0.50840230       0.49372026 </v>
   <v>       0.63663506       0.47423253       0.49109127 </v>
   <v>       0.60137622       0.40407689       0.48953105 </v>
   <v>       0.48747546       0.25710616       0.54777704 </v>
   <v>       0.50045744       0.29553727       0.48956496 </v>
   <v>       0.80052031       0.51751552       0.54827180 </v>
   <v>       0.86950838       0.47494000       0.49113035 </v>
   <v>       0.93895366       0.50881143       0.49340877 </v>
   <v>       0.50049521       0.17976014       0.48959034 </v>
   <v>       0.49787918       0.06770918       0.49389285 </v>
   <v>       0.53206926       0.13714778       0.49124800 </v>
   <v>       0.60222688       0.17203033       0.48952922 </v>
   <v>       0.83419653       0.40456045       0.48962531 </v>
   <v>       0.82642790       0.50543092       0.48988419 </v>
   <v>       0.63719560       0.13660993       0.49090574 </v>
   <v>       0.60148419       0.06716762       0.49316089 </v>
   <v>       0.42348317       0.92010254       0.49312665 </v>
   <v>       0.38782623       0.85065477       0.49071937 </v>
   <v>       0.74459116       0.20950604       0.42993155 </v>
   <v>       0.82670998       0.29521837       0.48944291 </v>
   <v>       0.28048624       0.77760037       0.42973871 </v>
   <v>       0.19835756       0.69185898       0.48922115 </v>
   <v>       0.53114068       0.03071635       0.49428166 </v>
   <v>       0.49383130       0.95660115       0.49418967 </v>
   <v>       0.97553570       0.47505466       0.49423136 </v>
   <v>       0.93867347       0.40481080       0.49353798 </v>
   <v>       0.86922925       0.36941982       0.49103917 </v>
   <v>       0.04964487       0.51199705       0.49416710 </v>
   <v>       0.15589039       0.61766723       0.49081338 </v>
   <v>       0.08646003       0.58224463       0.49352397 </v>
   <v>       0.74902448       0.20520814       0.54779266 </v>
   <v>       0.71078240       0.17958601       0.48949988 </v>
   <v>       0.27588859       0.78194997       0.54756947 </v>
   <v>       0.31422434       0.80758702       0.48932302 </v>
   <v>       0.52825572       0.58282618       0.49367162 </v>
   <v>       0.49451566       0.61853081       0.49123561 </v>
   <v>       0.08626775       0.47828069       0.49314311 </v>
   <v>       0.15571741       0.51219392       0.49068021 </v>
   <v>       0.52817805       0.72541806       0.42994285 </v>
   <v>       0.52476746       0.80774937       0.48924846 </v>
   <v>       0.22918406       0.47842597       0.42978051 </v>
   <v>       0.31472224       0.48182072       0.48943890 </v>
   <v>       0.49436861       0.51248537       0.49456687 </v>
   <v>       0.42412589       0.58357047       0.48957481 </v>
   <v>       0.38889264       0.51342209       0.49119169 </v>
   <v>       0.42413184       0.47923695       0.49390076 </v>
   <v>       0.42287190       0.81530734       0.48917621 </v>
   <v>       0.49304184       0.85023678       0.49084462 </v>
   <v>       0.52714550       0.91966603       0.49357708 </v>
   <v>       0.19096079       0.58257749       0.48914806 </v>
   <v>       0.53809572       0.73072877       0.54770145 </v>
   <v>       0.52503913       0.69209796       0.48963128 </v>
   <v>       0.22437862       0.46897348       0.54757661 </v>
   <v>       0.19892224       0.48183434       0.48930636 </v>
   <v>       0.68055657       0.39316057       0.48552802 </v>
   <v>       0.44290523       0.37609587       0.49400302 </v>
   <v>       0.49773550       0.28401849       0.38142764 </v>
   <v>       0.63055368       0.56267526       0.49477547 </v>
   <v>       0.48007001       0.27504799       0.59583363 </v>
   <v>       0.61316850       0.26211832       0.48516668 </v>
   <v>       0.39473394       0.94567596       0.49362123 </v>
   <v>       0.74408149       0.32532369       0.48568454 </v>
   <v>       0.96442165       0.56312064       0.49406934 </v>
   <v>       0.81860111       0.50986962       0.38179567 </v>
   <v>       0.44359668       0.04262143       0.49516637 </v>
   <v>       0.06123314       0.61130095       0.49465674 </v>
   <v>       0.82538417       0.52398283       0.59647672 </v>
   <v>       0.63022412       0.04158864       0.49347946 </v>
   <v>       0.72275571       0.18781735       0.38137576 </v>
   <v>       0.30235730       0.79927512       0.38119096 </v>
   <v>       0.96387884       0.37573065       0.49446395 </v>
   <v>       0.73079109       0.18011888       0.59592363 </v>
   <v>       0.29401860       0.80705561       0.59570895 </v>
   <v>       0.34495295       0.59445398       0.48502063 </v>
   <v>       0.58257979       0.61155458       0.49425901 </v>
   <v>       0.41201508       0.72526698       0.48480938 </v>
   <v>       0.28097900       0.66187403       0.48488685 </v>
   <v>       0.06079134       0.42396811       0.49370910 </v>
   <v>       0.52758605       0.70325484       0.38145761 </v>
   <v>       0.20779433       0.47903164       0.38118588 </v>
   <v>       0.39492507       0.42496464       0.49494197 </v>
   <v>       0.58142452       0.94480860       0.49471224 </v>
   <v>       0.54552526       0.71293826       0.59584409 </v>
   <v>       0.19903582       0.46166065       0.59562420 </v>
  </varray>
 </structure>
 <calculation>
  <scstep>
   <time name="dav">  388.90  393.16</time>
   <time name="total">  389.05  393.32</time>
   <energy>
    <i name="alphaZ">     67.20994887 </i>
    <i name="ewald">  48702.25436241 </i>
    <i name="hartreedc"> -61065.31410789 </i>
    <i name="XCdc">   1319.56028841 </i>
    <i name="pawpsdc">  34227.51687631 </i>
    <i name="pawaedc"> -34298.15353145 </i>
    <i name="eentropy">     -0.00000000 </i>
    <i name="bandstr">  -4708.05785387 </i>
    <i name="atom">  14972.05499778 </i>
    <i name="e_fr_energy">   -782.92901944 </i>
    <i name="e_wo_entrp">   -782.92901944 </i>
    <i name="e_0_energy">   -782.92901944 </i>
   </energy>
  </scstep>
  <scstep>
   <time name="dav">  428.07  432.65</time>
   <time name="total">  428.08  432.65</time>
   <energy>
    <i name="e_fr_energy">   -783.71383650 </i>
    <i name="e_wo_entrp">   -783.71383650 </i>
    <i name="e_0_energy">   -783.71383650 </i>
   </energy>
  </scstep>
  <scstep>
   <time name="dav">  495.96  501.23</time>
   <time name="total">  495.97  501.24</time>
   <energy>
    <i name="e_fr_energy">   -783.73826110 </i>
    <i name="e_wo_entrp">   -783.73826110 </i>
    <i name="e_0_energy">   -783.73826110 </i>
   </energy>
  </scstep>
  <scstep>
   <time name="dav">  422.37  427.11</time>
   <time name="total">  422.38  427.11</time>
   <energy>
    <i name="e_fr_energy">   -783.73864705 </i>
    <i name="e_wo_entrp">   -783.73864705 </i>
    <i name="e_0_energy">   -783.73864705 </i>
   </energy>
  </scstep>
  <scstep>
   <time name="dav">  438.10  442.75</time>
   <time name="total">  438.10  442.76</time>
   <energy>
    <i name="e_fr_energy">   -783.73866972 </i>
    <i name="e_wo_entrp">   -783.73866972 </i>
    <i name="e_0_energy">   -783.73866972 </i>
   </energy>
  </scstep>
  <scstep>
   <time name="dav">  323.11  326.74</time>
   <time name="total">  323.12  326.75</time>
   <energy>
    <i name="alphaZ">     67.20994887 </i>
    <i name="ewald">  48702.25436241 </i>
    <i name="hartreedc"> -61065.31410789 </i>
    <i name="XCdc">   1319.56028841 </i>
    <i name="pawpsdc">  34227.51687631 </i>
    <i name="pawaedc"> -34298.15353145 </i>
    <i name="eentropy">     -0.00000000 </i>
    <i name="bandstr">  -4708.86750477 </i>
    <i name="atom">  14972.05499778 </i>
    <i name="e_fr_energy">   -783.73867034 </i>
    <i name="e_wo_entrp">   -783.73867034 </i>
    <i name="e_0_energy">   -783.73867034 </i>
   </energy>
  </scstep>
  <structure>
   <crystal>
    <varray name="basis" >
     <v>      23.13690353      -0.00004402       0.00000000 </v>
     <v>     -11.56846020      20.03937650       0.00000000 </v>
     <v>       0.00000000       0.00000000      20.00000000 </v>
    </varray>
    <i name="volume">   9272.97223331 </i>
    <varray name="rec_basis" >
     <v>       0.04322104       0.02495092       0.00000000 </v>
     <v>       0.00000009       0.04990181       0.00000000 </v>
     <v>       0.00000000       0.00000000       0.05000000 </v>
    </varray>
   </crystal>
   <varray name="positions" >
    <v>       0.49777795       0.20440618       0.42947019 </v>
    <v>       0.73872282       0.50953446       0.42968772 </v>
    <v>       0.74250946       0.51741063       0.54872597 </v>
    <v>       0.48775089       0.19926748       0.54836106 </v>
    <v>       0.80225438       0.26764165       0.42936304 </v>
    <v>       0.22287921       0.71940664       0.42915139 </v>
    <v>       0.80698574       0.26318792       0.54831428 </v>
    <v>       0.21792604       0.72394540       0.54806465 </v>
    <v>       0.52737405       0.78289943       0.42922255 </v>
    <v>       0.28732063       0.47887303       0.42929854 </v>
    <v>       0.53784069       0.78857265       0.54804958 </v>
    <v>       0.28251090       0.46928010       0.54818387 </v>
    <v>       0.63184236       0.36612713       0.48745146 </v>
    <v>       0.64019010       0.24043188       0.48743865 </v>
    <v>       0.76578094       0.37404287       0.48767010 </v>
    <v>       0.39365137       0.62150187       0.48727853 </v>
    <v>       0.38495603       0.74691619       0.48697638 </v>
    <v>       0.25937360       0.61316852       0.48694634 </v>
    <v>       0.53098006       0.36911114       0.49100490 </v>
    <v>       0.49723059       0.40480870       0.49342049 </v>
    <v>       0.49714380       0.26197971       0.42999349 </v>
    <v>       0.79678500       0.50981396       0.43033408 </v>
    <v>       0.71082610       0.50579078       0.48971876 </v>
    <v>       0.53112868       0.47514884       0.49443474 </v>
    <v>       0.60137092       0.50840230       0.49372026 </v>
    <v>       0.63663506       0.47423253       0.49109127 </v>
    <v>       0.60137622       0.40407689       0.48953105 </v>
    <v>       0.48747546       0.25710616       0.54777704 </v>
    <v>       0.50045744       0.29553727       0.48956496 </v>
    <v>       0.80052031       0.51751552       0.54827180 </v>
    <v>       0.86950838       0.47494000       0.49113035 </v>
    <v>       0.93895366       0.50881143       0.49340877 </v>
    <v>       0.50049521       0.17976014       0.48959034 </v>
    <v>       0.49787918       0.06770918       0.49389285 </v>
    <v>       0.53206926       0.13714778       0.49124800 </v>
    <v>       0.60222688       0.17203033       0.48952922 </v>
    <v>       0.83419653       0.40456045       0.48962531 </v>
    <v>       0.82642790       0.50543092       0.48988419 </v>
    <v>       0.63719560       0.13660993       0.49090574 </v>
    <v>       0.60148419       0.06716762       0.49316089 </v>
    <v>       0.42348317       0.92010254       0.49312665 </v>
    <v>       0.38782623       0.85065477       0.49071937 </v>
    <v>       0.74459116       0.20950604       0.42993155 </v>
    <v>       0.82670998       0.29521837       0.48944291 </v>
    <v>       0.28048624       0.77760037       0.42973871 </v>
    <v>       0.19835756       0.69185898       0.48922115 </v>
    <v>       0.53114068       0.03071635       0.49428166 </v>
    <v>       0.49383130       0.95660115       0.49418967 </v>
    <v>       0.97553570       0.47505466       0.49423136 </v>
    <v>       0.93867347       0.40481080       0.49353798 </v>
    <v>       0.86922925       0.36941982       0.49103917 </v>
    <v>       0.04964487       0.51199705       0.49416710 </v>
    <v>       0.15589039       0.61766723       0.49081338 </v>
    <v>       0.08646003       0.58224463       0.49352397 </v>
    <v>       0.74902448       0.20520814       0.54779266 </v>
    <v>       0.71078240       0.17958601       0.48949988 </v>
    <v>       0.27588859       0.78194997       0.54756947 </v>
    <v>       0.31422434       0.80758702       0.48932302 </v>
    <v>       0.52825572       0.58282618       0.49367162 </v>
    <v>       0.49451566       0.61853081       0.49123561 </v>
    <v>       0.08626775       0.47828069       0.49314311 </v>
    <v>       0.15571741       0.51219392       0.49068021 </v>
    <v>       0.52817805       0.72541806       0.42994285 </v>
    <v>       0.52476746       0.80774937       0.48924846 </v>
    <v>       0.22918406       0.47842597       0.42978051 </v>
    <v>       0.31472224       0.48182072       0.48943890 </v>
    <v>       0.49436861       0.51248537       0.49456687 </v>
    <v>       0.42412589       0.58357047       0.48957481 </v>
    <v>       0.38889264       0.51342209       0.49119169 </v>
    <v>       0.42413184       0.47923695       0.49390076 </v>
    <v>       0.42287190       0.81530734       0.48917621 </v>
    <v>       0.49304184       0.85023678       0.49084462 </v>
    <v>       0.52714550       0.91966603       0.49357708 </v>
    <v>       0.19096079       0.58257749       0.48914806 </v>
    <v>       0.53809572       0.73072877       0.54770145 </v>
    <v>       0.52503913       0.69209796       0.48963128 </v>
    <v>       0.22437862       0.46897348       0.54757661 </v>
    <v>       0.19892224       0.48183434       0.48930636 </v>
    <v>       0.68055657       0.39316057       0.48552802 </v>
    <v>       0.44290523       0.37609587       0.49400302 </v>
    <v>       0.49773550       0.28401849       0.38142764 </v>
    <v>       0.63055368       0.56267526       0.49477547 </v>
    <v>       0.48007001       0.27504799       0.59583363 </v>
    <v>       0.61316850       0.26211832       0.48516668 </v>
    <v>       0.39473394       0.94567596       0.49362123 </v>
    <v>       0.74408149       0.32532369       0.48568454 </v>
    <v>       0.96442165       0.56312064       0.49406934 </v>
    <v>       0.81860111       0.50986962       0.38179567 </v>
    <v>       0.44359668       0.04262143       0.49516637 </v>
    <v>       0.06123314       0.61130095       0.49465674 </v>
    <v>       0.82538417       0.52398283       0.59647672 </v>
    <v>       0.63022412       0.04158864       0.49347946 </v>
    <v>       0.72275571       0.18781735       0.38137576 </v>
    <v>       0.30235730       0.79927512       0.38119096 </v>
    <v>       0.96387884       0.37573065       0.49446395 </v>
    <v>       0.73079109       0.18011888       0.59592363 </v>
    <v>       0.29401860       0.80705561       0.59570895 </v>
    <v>       0.34495295       0.59445398       0.48502063 </v>
    <v>       0.58257979       0.61155458       0.49425901 </v>
    <v>       0.41201508       0.72526698       0.48480938 </v>
    <v>       0.28097900       0.66187403       0.48488685 </v>
    <v>       0.06079134       0.42396811       0.49370910 </v>
    <v>       0.52758605       0.70325484       0.38145761 </v>
    <v>       0.20779433       0.47903164       0.38118588 </v>
    <v>       0.39492507       0.42496464       0.49494197 </v>
    <v>       0.58142452       0.94480860       0.49471224 </v>
    <v>       0.54552526       0.71293826       0.59584409 </v>
    <v>       0.19903582       0.46166065       0.59562420 </v>
   </varray>
  </structure>
  <varray name="forces" >
   <v>      -0.00008271      -0.00488084      -0.00595109 </v>
   <v>       0.00467426      -0.00147450       0.00105124 </v>
   <v>      -0.00033566      -0.00330754      -0.00326493 </v>
   <v>      -0.00256243      -0.00112140      -0.00398464 </v>
   <v>      -0.00277826       0.00249429       0.00178175 </v>
   <v>       0.00039229      -0.00135028      -0.00425616 </v>
   <v>       0.00118277       0.00118589      -0.00502526 </v>
   <v>       0.00317446      -0.00183532       0.00038734 </v>
   <v>       0.00136914      -0.00046725      -0.00537729 </v>
   <v>       0.00270693       0.00278802       0.00140376 </v>
   <v>      -0.00064673       0.00006260      -0.00083342 </v>
   <v>      -0.00113040      -0.00186384      -0.00413565 </v>
   <v>       0.00111348       0.00206121      -0.00301277 </v>
   <v>      -0.00003219      -0.00484072      -0.00054148 </v>
   <v>       0.00077075       0.00236539       0.00169000 </v>
   <v>      -0.00059002      -0.00031872       0.00002548 </v>
   <v>      -0.00039442      -0.00194929       0.00123683 </v>
   <v>      -0.00187120      -0.00014087      -0.00017355 </v>
   <v>       0.00049632      -0.00050061       0.00271930 </v>
   <v>       0.00040446       0.00002930       0.00284177 </v>
   <v>       0.00537309       0.00294646       0.00146590 </v>
   <v>      -0.00555769       0.00138706      -0.00178260 </v>
   <v>      -0.00127860       0.00297623       0.00422655 </v>
   <v>       0.00431783      -0.00072459      -0.00077150 </v>
   <v>       0.00097214       0.00091791       0.00001983 </v>
   <v>      -0.00331015       0.00074401       0.00320203 </v>
   <v>      -0.00190101       0.00224521      -0.00066689 </v>
   <v>       0.00222057       0.00251396       0.00168778 </v>
   <v>      -0.00305243      -0.00539518       0.00351665 </v>
   <v>       0.00405742       0.00058634       0.00009148 </v>
   <v>       0.00021806      -0.00215354      -0.00215724 </v>
   <v>      -0.00107535       0.00014532       0.00004896 </v>
   <v>       0.00201952       0.00338521      -0.00085635 </v>
   <v>       0.00010679      -0.00205841       0.00008237 </v>
   <v>      -0.00147830       0.00064313      -0.00229854 </v>
   <v>       0.00010337       0.00149500       0.00174050 </v>
   <v>      -0.00158400      -0.00257471       0.00276924 </v>
   <v>       0.00206619       0.00098448       0.00047909 </v>
   <v>      -0.00206501       0.00039340      -0.00128432 </v>
   <v>      -0.00324007       0.00081194      -0.00042474 </v>
   <v>      -0.00042375       0.00244897       0.00115227 </v>
   <v>      -0.00036545       0.00128610       0.00026229 </v>
   <v>       0.00020497       0.00073696      -0.00055856 </v>
   <v>      -0.00316682       0.00289121       0.00290266 </v>
   <v>       0.00089903       0.00103198       0.00094470 </v>
   <v>      -0.00567791      -0.00082832      -0.00047239 </v>
   <v>      -0.00302989      -0.00364947      -0.00080268 </v>
   <v>       0.00052179       0.00141046       0.00001574 </v>
   <v>       0.00188002       0.00251752      -0.00031869 </v>
   <v>       0.00054119      -0.00023002      -0.00134496 </v>
   <v>      -0.00309899      -0.00200772      -0.00007147 </v>
   <v>       0.00011076      -0.00025281      -0.00181892 </v>
   <v>      -0.00040400      -0.00072603      -0.00216025 </v>
   <v>       0.00034122       0.00073059       0.00061152 </v>
   <v>      -0.00115988      -0.00127129      -0.00066940 </v>
   <v>       0.00002052       0.00065133       0.00118085 </v>
   <v>       0.00052563       0.00337603       0.00094415 </v>
   <v>       0.00079844      -0.00266929       0.00154084 </v>
   <v>       0.00129904       0.00339410      -0.00000005 </v>
   <v>       0.00024062       0.00117812      -0.00345789 </v>
   <v>       0.00041064       0.00025522      -0.00159592 </v>
   <v>      -0.00017458      -0.00043650       0.00186698 </v>
   <v>      -0.00341564       0.00068133       0.00038420 </v>
   <v>      -0.00126838      -0.00062671       0.00192101 </v>
   <v>       0.00471729      -0.00312504       0.00022296 </v>
   <v>      -0.00172417      -0.00141988      -0.00629815 </v>
   <v>       0.00152234       0.00130163      -0.00131259 </v>
   <v>       0.00286619      -0.00124420       0.00208932 </v>
   <v>      -0.00381345      -0.00283911      -0.00252942 </v>
   <v>      -0.00111869      -0.00261666      -0.00185592 </v>
   <v>      -0.00012877      -0.00015860       0.00029791 </v>
   <v>      -0.00029697       0.00053945       0.00263958 </v>
   <v>      -0.00091182       0.00126487       0.00003770 </v>
   <v>       0.00105031      -0.00173065      -0.00151400 </v>
   <v>       0.00123659      -0.00482507       0.00071401 </v>
   <v>      -0.00119897       0.00036890       0.00297317 </v>
   <v>       0.00135038       0.00089421       0.00072964 </v>
   <v>       0.00017369      -0.00207054      -0.00220469 </v>
   <v>       0.00318666      -0.00051044       0.00359684 </v>
   <v>       0.00203119      -0.00018410      -0.00081335 </v>
   <v>      -0.00234202      -0.00348803       0.00174642 </v>
   <v>      -0.00014036       0.00248884       0.00018504 </v>
   <v>       0.00526627       0.00666261       0.00205440 </v>
   <v>       0.00154436       0.00001026       0.00385800 </v>
   <v>      -0.00038317      -0.00110232      -0.00006400 </v>
   <v>      -0.00004483       0.00112128       0.00040960 </v>
   <v>       0.00164264       0.00393062      -0.00270344 </v>
   <v>      -0.00094770       0.00664992       0.00082707 </v>
   <v>       0.00395015       0.00138798      -0.00304911 </v>
   <v>       0.00132157      -0.00022939      -0.00101289 </v>
   <v>      -0.00022548      -0.00313263       0.00062251 </v>
   <v>       0.00082373      -0.00253328       0.00213018 </v>
   <v>      -0.00162771       0.00261910       0.00200173 </v>
   <v>      -0.00046025      -0.00118640       0.00036945 </v>
   <v>      -0.00097009      -0.00046804      -0.00096542 </v>
   <v>      -0.00055107       0.00202325       0.00156122 </v>
   <v>       0.00047406      -0.00006089      -0.00009497 </v>
   <v>      -0.00264209      -0.00196311       0.00249991 </v>
   <v>      -0.00197736      -0.00068773      -0.00015611 </v>
   <v>       0.00134882      -0.00181365       0.00193446 </v>
   <v>       0.00097839      -0.00121338       0.00210963 </v>
   <v>       0.00111197       0.00060279       0.00002853 </v>
   <v>       0.00038832       0.00211331       0.00091732 </v>
   <v>      -0.00057362      -0.00741322       0.00129713 </v>
   <v>       0.00157958      -0.00031665      -0.00116831 </v>
   <v>      -0.00043728      -0.00081338       0.00095468 </v>
   <v>      -0.00263578      -0.00034987      -0.00199171 </v>
   <v>      -0.00179464       0.00742076       0.00280025 </v>
  </varray>
  <varray name="stress" >
   <v>       0.00725819      -0.00343005      -0.00292570 </v>
   <v>      -0.00343006       0.02731074       0.00359483 </v>
   <v>      -0.00292569       0.00359484      -0.25571922 </v>
  </varray>
  <energy>
   <i name="e_fr_energy">   -786.55763394 </i>
   <i name="e_wo_entrp">   -786.55763394 </i>
   <i name="e_0_energy">     -0.00000000 </i>
  </energy>
  <time name="totalsc"> 2957.31 2990.71</time>
  <eigenvalues>
   <array>
    <dimension dim="1">band</dimension>
    <dimension dim="2">kpoint</dimension>
    <dimension dim="3">spin</dimension>
    <field>eigene</field>
    <field>occ</field>
    <set>
     <set comment="spin 1">
      <set comment="kpoint 1">
       <r>  -26.5721    1.0000 </r>
       <r>  -26.5708    1.0000 </r>
       <r>  -26.4338    1.0000 </r>
       <r>  -26.4326    1.0000 </r>
       <r>  -26.4299    1.0000 </r>
       <r>  -26.4281    1.0000 </r>
       <r>  -24.5443    1.0000 </r>
       <r>  -24.5441    1.0000 </r>
       <r>  -24.5429    1.0000 </r>
       <r>  -24.5420    1.0000 </r>
       <r>  -24.5254    1.0000 </r>
       <r>  -24.5248    1.0000 </r>
       <r>  -21.9286    1.0000 </r>
       <r>  -21.9270    1.0000 </r>
       <r>  -21.9268    1.0000 </r>
       <r>  -21.9263    1.0000 </r>
       <r>  -21.9262    1.0000 </r>
       <r>  -21.9261    1.0000 </r>
       <r>  -21.5453    1.0000 </r>
       <r>  -21.5427    1.0000 </r>
       <r>  -21.4491    1.0000 </r>
       <r>  -21.2090    1.0000 </r>
       <r>  -21.2066    1.0000 </r>
       <r>  -21.0167    1.0000 </r>
       <r>  -20.3823    1.0000 </r>
       <r>  -20.3602    1.0000 </r>
       <r>  -20.1004    1.0000 </r>
       <r>  -20.0989    1.0000 </r>
       <r>  -19.7693    1.0000 </r>
       <r>  -19.7688    1.0000 </r>
       <r>  -19.2167    1.0000 </r>
       <r>  -19.0612    1.0000 </r>
       <r>  -19.0605    1.0000 </r>
       <r>  -18.6589    1.0000 </r>
       <r>  -18.6583    1.0000 </r>
       <r>  -18.1616    1.0000 </r>
       <r>  -18.1615    1.0000 </r>
       <r>  -17.9372    1.0000 </r>
       <r>  -17.7957    1.0000 </r>
       <r>  -17.6240    1.0000 </r>
       <r>  -17.4397    1.0000 </r>
       <r>  -17.4375    1.0000 </r>
       <r>  -16.5153    1.0000 </r>
       <r>  -16.5139    1.0000 </r>
       <r>  -16.2498    1.0000 </r>
       <r>  -16.2489    1.0000 </r>
       <r>  -16.1226    1.0000 </r>
       <r>  -16.1203    1.0000 </r>
       <r>  -16.0484    1.0000 </r>
       <r>  -16.0465    1.0000 </r>
       <r>  -16.0448    1.0000 </r>
       <r>  -16.0443    1.0000 </r>
       <r>  -16.0401    1.0000 </r>
       <r>  -16.0377    1.0000 </r>
       <r>  -15.5539    1.0000 </r>
       <r>  -15.4585    1.0000 </r>
       <r>  -15.4556    1.0000 </r>
       <r>  -15.3665    1.0000 </r>
       <r>  -14.8024    1.0000 </r>
       <r>  -14.8013    1.0000 </r>
       <r>  -14.7101    1.0000 </r>
       <r>  -14.3894    1.0000 </r>
       <r>  -14.3874    1.0000 </r>
       <r>  -14.2737    1.0000 </r>
       <r>  -14.1971    1.0000 </r>
       <r>  -14.1947    1.0000 </r>
       <r>  -13.5837    1.0000 </r>
       <r>  -13.4899    1.0000 </r>
       <r>  -13.4878    1.0000 </r>
       <r>  -13.4649    1.0000 </r>
       <r>  -13.4325    1.0000 </r>
       <r>  -13.4307    1.0000 </r>
       <r>  -12.9711    1.0000 </r>
       <r>  -12.7214    1.0000 </r>
       <r>  -12.7200    1.0000 </r>
       <r>  -12.6671    1.0000 </r>
       <r>  -12.6607    1.0000 </r>
       <r>  -12.6178    1.0000 </r>
       <r>  -12.6166    1.0000 </r>
       <r>  -12.6126    1.0000 </r>
       <r>  -12.6112    1.0000 </r>
       <r>  -12.3293    1.0000 </r>
       <r>  -12.2564    1.0000 </r>
       <r>  -12.2548    1.0000 </r>
       <r>  -12.0958    1.0000 </r>
       <r>  -12.0956    1.0000 </r>
       <r>  -12.0535    1.0000 </r>
       <r>  -12.0521    1.0000 </r>
       <r>  -12.0136    1.0000 </r>
       <r>  -11.6636    1.0000 </r>
       <r>  -11.1222    1.0000 </r>
       <r>  -11.1207    1.0000 </r>
       <r>  -11.0273    1.0000 </r>
       <r>  -10.9949    1.0000 </r>
       <r>  -10.9944    1.0000 </r>
       <r>  -10.8957    1.0000 </r>
       <r>  -10.7909    1.0000 </r>
       <r>  -10.7890    1.0000 </r>
       <r>  -10.6403    1.0000 </r>
       <r>  -10.5493    1.0000 </r>
       <r>  -10.3307    1.0000 </r>
       <r>  -10.3298    1.0000 </r>
       <r>  -10.3275    1.0000 </r>
       <r>  -10.1691    1.0000 </r>
       <r>  -10.1685    1.0000 </r>
       <r>  -10.1007    1.0000 </r>
       <r>  -10.0988    1.0000 </r>
       <r>  -10.0412    1.0000 </r>
       <r>  -10.0402    1.0000 </r>
       <r>   -9.9743    1.0000 </r>
       <r>   -9.9722    1.0000 </r>
       <r>   -9.8852    1.0000 </r>
       <r>   -9.8548    1.0000 </r>
       <r>   -9.8524    1.0000 </r>
       <r>   -9.8304    1.0000 </r>
       <r>   -9.8117    1.0000 </r>
       <r>   -9.7689    1.0000 </r>
       <r>   -9.6532    1.0000 </r>
       <r>   -9.6344    1.0000 </r>
       <r>   -9.6327    1.0000 </r>
       <r>   -9.6297    1.0000 </r>
       <r>   -9.6268    1.0000 </r>
       <r>   -9.5562    1.0000 </r>
       <r>   -9.5549    1.0000 </r>
       <r>   -9.5487    1.0000 </r>
       <r>   -9.5472    1.0000 </r>
       <r>   -9.3204    1.0000 </r>
       <r>   -9.3159    1.0000 </r>
       <r>   -9.1937    1.0000 </r>
       <r>   -9.1913    1.0000 </r>
       <r>   -9.1302    1.0000 </r>
       <r>   -9.0495    1.0000 </r>
       <r>   -8.7526    1.0000 </r>
       <r>   -8.7001    1.0000 </r>
       <r>   -8.6974    1.0000 </r>
       <r>   -8.6370    1.0000 </r>
       <r>   -8.6352    1.0000 </r>
       <r>   -8.5030    1.0000 </r>
       <r>   -8.5014    1.0000 </r>
       <r>   -8.5005    1.0000 </r>
       <r>   -8.1896    1.0000 </r>
       <r>   -7.9608    1.0000 </r>
       <r>   -7.9596    1.0000 </r>
       <r>   -7.8097    1.0000 </r>
       <r>   -7.7583    1.0000 </r>
       <r>   -7.7579    1.0000 </r>
       <r>   -7.6966    1.0000 </r>
       <r>   -7.6946    1.0000 </r>
       <r>   -7.6492    1.0000 </r>
       <r>   -7.6349    1.0000 </r>
       <r>   -7.6249    1.0000 </r>
       <r>   -7.6241    1.0000 </r>
       <r>   -7.5958    1.0000 </r>
       <r>   -7.1022    1.0000 </r>
       <r>   -7.0226    1.0000 </r>
       <r>   -6.9322    1.0000 </r>
       <r>   -6.9302    1.0000 </r>
       <r>   -6.8076    1.0000 </r>
       <r>   -6.8061    1.0000 </r>
       <r>   -6.5254    1.0000 </r>
       <r>   -6.5213    1.0000 </r>
       <r>   -6.4874    1.0000 </r>
       <r>   -6.4496    1.0000 </r>
       <r>   -6.4434    1.0000 </r>
       <r>   -6.4289    1.0000 </r>
       <r>   -6.3115    1.0000 </r>
       <r>   -6.3075    1.0000 </r>
       <r>   -6.2225    1.0000 </r>
       <r>   -6.2203    1.0000 </r>
       <r>   -6.2169    1.0000 </r>
       <r>   -6.1764    1.0000 </r>
       <r>   -6.0549    1.0000 </r>
       <r>   -5.9744    1.0000 </r>
       <r>   -5.9706    1.0000 </r>
       <r>   -5.5594    1.0000 </r>
       <r>   -5.4675    1.0000 </r>
       <r>   -5.4671    1.0000 </r>
       <r>   -5.4194    1.0000 </r>
       <r>   -5.3629    1.0000 </r>
       <r>   -5.3626    1.0000 </r>
       <r>   -4.7194    1.0000 </r>
       <r>   -4.6883    1.0000 </r>
       <r>   -4.6860    1.0000 </r>
       <r>   -2.2272    0.0000 </r>
       <r>   -2.1108    0.0000 </r>
       <r>   -2.0552    0.0000 </r>
       <r>   -2.0399    0.0000 </r>
       <r>   -1.9966    0.0000 </r>
       <r>   -1.9937    0.0000 </r>
       <r>   -1.9835    0.0000 </r>
       <r>   -1.9815    0.0000 </r>
       <r>   -1.7354    0.0000 </r>
       <r>   -1.7323    0.0000 </r>
       <r>   -1.7104    0.0000 </r>
       <r>   -1.7075    0.0000 </r>
       <r>   -1.5077    0.0000 </r>
       <r>   -1.4610    0.0000 </r>
       <r>   -1.4587    0.0000 </r>
       <r>   -1.1542    0.0000 </r>
       <r>   -1.1522    0.0000 </r>
       <r>   -1.0167    0.0000 </r>
       <r>   -0.6172    0.0000 </r>
       <r>   -0.6159    0.0000 </r>
       <r>   -0.5488    0.0000 </r>
       <r>   -0.1632    0.0000 </r>
       <r>    0.0263    0.0000 </r>
       <r>    0.1606    0.0000 </r>
       <r>    0.1619    0.0000 </r>
       <r>    0.1622    0.0000 </r>
       <r>    0.1627    0.0000 </r>
       <r>    0.2346    0.0000 </r>
       <r>    0.2358    0.0000 </r>
       <r>    0.2368    0.0000 </r>
       <r>    0.2735    0.0000 </r>
       <r>    0.4596    0.0000 </r>
       <r>    0.6621    0.0000 </r>
       <r>    0.6992    0.0000 </r>
       <r>    0.7078    0.0000 </r>
       <r>    0.7705    0.0000 </r>
       <r>    0.7721    0.0000 </r>
       <r>    0.8004    0.0000 </r>
       <r>    0.8011    0.0000 </r>
       <r>    0.8861    0.0000 </r>
       <r>    0.8867    0.0000 </r>
       <r>    0.8935    0.0000 </r>
       <r>    0.9083    0.0000 </r>
       <r>    0.9089    0.0000 </r>
       <r>    0.9609    0.0000 </r>
       <r>    0.9655    0.0000 </r>
       <r>    0.9663    0.0000 </r>
       <r>    1.1101    0.0000 </r>
       <r>    1.1789    0.0000 </r>
       <r>    1.1808    0.0000 </r>
       <r>    1.1850    0.0000 </r>
       <r>    1.2098    0.0000 </r>
       <r>    1.2496    0.0000 </r>
       <r>    1.2521    0.0000 </r>
       <r>    1.2775    0.0000 </r>
       <r>    1.2797    0.0000 </r>
       <r>    1.3267    0.0000 </r>
      </set>
      <set comment="kpoint 2">
       <r>  -26.5721    1.0000 </r>
       <r>  -26.5708    1.0000 </r>
       <r>  -26.4338    1.0000 </r>
       <r>  -26.4326    1.0000 </r>
       <r>  -26.4299    1.0000 </r>
       <r>  -26.4281    1.0000 </r>
       <r>  -24.5443    1.0000 </r>
       <r>  -24.5441    1.0000 </r>
       <r>  -24.5429    1.0000 </r>
       <r>  -24.5420    1.0000 </r>
       <r>  -24.5254    1.0000 </r>
       <r>  -24.5248    1.0000 </r>
       <r>  -21.9286    1.0000 </r>
       <r>  -21.9270    1.0000 </r>
       <r>  -21.9268    1.0000 </r>
       <r>  -21.9263    1.0000 </r>
       <r>  -21.9262    1.0000 </r>
       <r>  -21.9261    1.0000 </r>
       <r>  -21.5453    1.0000 </r>
       <r>  -21.5426    1.0000 </r>
       <r>  -21.4493    1.0000 </r>
       <r>  -21.2089    1.0000 </r>
       <r>  -21.2063    1.0000 </r>
       <r>  -21.0170    1.0000 </r>
       <r>  -20.3823    1.0000 </r>
       <r>  -20.3603    1.0000 </r>
       <r>  -20.1003    1.0000 </r>
       <r>  -20.0986    1.0000 </r>
       <r>  -19.7694    1.0000 </r>
       <r>  -19.7692    1.0000 </r>
       <r>  -19.2163    1.0000 </r>
       <r>  -19.0614    1.0000 </r>
       <r>  -19.0607    1.0000 </r>
       <r>  -18.6584    1.0000 </r>
       <r>  -18.6577    1.0000 </r>
       <r>  -18.1632    1.0000 </r>
       <r>  -18.1619    1.0000 </r>
       <r>  -17.9363    1.0000 </r>
       <r>  -17.7947    1.0000 </r>
       <r>  -17.6246    1.0000 </r>
       <r>  -17.4397    1.0000 </r>
       <r>  -17.4375    1.0000 </r>
       <r>  -16.5151    1.0000 </r>
       <r>  -16.5135    1.0000 </r>
       <r>  -16.2499    1.0000 </r>
       <r>  -16.2489    1.0000 </r>
       <r>  -16.1231    1.0000 </r>
       <r>  -16.1203    1.0000 </r>
       <r>  -16.0484    1.0000 </r>
       <r>  -16.0465    1.0000 </r>
       <r>  -16.0448    1.0000 </r>
       <r>  -16.0443    1.0000 </r>
       <r>  -16.0401    1.0000 </r>
       <r>  -16.0378    1.0000 </r>
       <r>  -15.5538    1.0000 </r>
       <r>  -15.4593    1.0000 </r>
       <r>  -15.4557    1.0000 </r>
       <r>  -15.3649    1.0000 </r>
       <r>  -14.8036    1.0000 </r>
       <r>  -14.8021    1.0000 </r>
       <r>  -14.7081    1.0000 </r>
       <r>  -14.3897    1.0000 </r>
       <r>  -14.3877    1.0000 </r>
       <r>  -14.2735    1.0000 </r>
       <r>  -14.1971    1.0000 </r>
       <r>  -14.1947    1.0000 </r>
       <r>  -13.5836    1.0000 </r>
       <r>  -13.4901    1.0000 </r>
       <r>  -13.4881    1.0000 </r>
       <r>  -13.4646    1.0000 </r>
       <r>  -13.4325    1.0000 </r>
       <r>  -13.4307    1.0000 </r>
       <r>  -12.9708    1.0000 </r>
       <r>  -12.7217    1.0000 </r>
       <r>  -12.7205    1.0000 </r>
       <r>  -12.6670    1.0000 </r>
       <r>  -12.6607    1.0000 </r>
       <r>  -12.6178    1.0000 </r>
       <r>  -12.6166    1.0000 </r>
       <r>  -12.6126    1.0000 </r>
       <r>  -12.6112    1.0000 </r>
       <r>  -12.3291    1.0000 </r>
       <r>  -12.2565    1.0000 </r>
       <r>  -12.2550    1.0000 </r>
       <r>  -12.0957    1.0000 </r>
       <r>  -12.0953    1.0000 </r>
       <r>  -12.0535    1.0000 </r>
       <r>  -12.0521    1.0000 </r>
       <r>  -12.0129    1.0000 </r>
       <r>  -11.6640    1.0000 </r>
       <r>  -11.1235    1.0000 </r>
       <r>  -11.1218    1.0000 </r>
       <r>  -11.0267    1.0000 </r>
       <r>  -10.9948    1.0000 </r>
       <r>  -10.9936    1.0000 </r>
       <r>  -10.8953    1.0000 </r>
       <r>  -10.7906    1.0000 </r>
       <r>  -10.7892    1.0000 </r>
       <r>  -10.6405    1.0000 </r>
       <r>  -10.5489    1.0000 </r>
       <r>  -10.3319    1.0000 </r>
       <r>  -10.3300    1.0000 </r>
       <r>  -10.3262    1.0000 </r>
       <r>  -10.1691    1.0000 </r>
       <r>  -10.1687    1.0000 </r>
       <r>  -10.1007    1.0000 </r>
       <r>  -10.0987    1.0000 </r>
       <r>  -10.0412    1.0000 </r>
       <r>  -10.0403    1.0000 </r>
       <r>   -9.9743    1.0000 </r>
       <r>   -9.9720    1.0000 </r>
       <r>   -9.8850    1.0000 </r>
       <r>   -9.8548    1.0000 </r>
       <r>   -9.8524    1.0000 </r>
       <r>   -9.8303    1.0000 </r>
       <r>   -9.8120    1.0000 </r>
       <r>   -9.7691    1.0000 </r>
       <r>   -9.6538    1.0000 </r>
       <r>   -9.6349    1.0000 </r>
       <r>   -9.6330    1.0000 </r>
       <r>   -9.6292    1.0000 </r>
       <r>   -9.6265    1.0000 </r>
       <r>   -9.5564    1.0000 </r>
       <r>   -9.5551    1.0000 </r>
       <r>   -9.5483    1.0000 </r>
       <r>   -9.5468    1.0000 </r>
       <r>   -9.3204    1.0000 </r>
       <r>   -9.3155    1.0000 </r>
       <r>   -9.1936    1.0000 </r>
       <r>   -9.1912    1.0000 </r>
       <r>   -9.1303    1.0000 </r>
       <r>   -9.0498    1.0000 </r>
       <r>   -8.7525    1.0000 </r>
       <r>   -8.7002    1.0000 </r>
       <r>   -8.6974    1.0000 </r>
       <r>   -8.6370    1.0000 </r>
       <r>   -8.6352    1.0000 </r>
       <r>   -8.5048    1.0000 </r>
       <r>   -8.5021    1.0000 </r>
       <r>   -8.4976    1.0000 </r>
       <r>   -8.1905    1.0000 </r>
       <r>   -7.9609    1.0000 </r>
       <r>   -7.9587    1.0000 </r>
       <r>   -7.8096    1.0000 </r>
       <r>   -7.7583    1.0000 </r>
       <r>   -7.7579    1.0000 </r>
       <r>   -7.6966    1.0000 </r>
       <r>   -7.6946    1.0000 </r>
       <r>   -7.6495    1.0000 </r>
       <r>   -7.6353    1.0000 </r>
       <r>   -7.6249    1.0000 </r>
       <r>   -7.6238    1.0000 </r>
       <r>   -7.5958    1.0000 </r>
       <r>   -7.1021    1.0000 </r>
       <r>   -7.0228    1.0000 </r>
       <r>   -6.9320    1.0000 </r>
       <r>   -6.9302    1.0000 </r>
       <r>   -6.8077    1.0000 </r>
       <r>   -6.8062    1.0000 </r>
       <r>   -6.5253    1.0000 </r>
       <r>   -6.5211    1.0000 </r>
       <r>   -6.4873    1.0000 </r>
       <r>   -6.4496    1.0000 </r>
       <r>   -6.4435    1.0000 </r>
       <r>   -6.4290    1.0000 </r>
       <r>   -6.3115    1.0000 </r>
       <r>   -6.3074    1.0000 </r>
       <r>   -6.2231    1.0000 </r>
       <r>   -6.2213    1.0000 </r>
       <r>   -6.2152    1.0000 </r>
       <r>   -6.1763    1.0000 </r>
       <r>   -6.0549    1.0000 </r>
       <r>   -5.9745    1.0000 </r>
       <r>   -5.9707    1.0000 </r>
       <r>   -5.5593    1.0000 </r>
       <r>   -5.4675    1.0000 </r>
       <r>   -5.4672    1.0000 </r>
       <r>   -5.4192    1.0000 </r>
       <r>   -5.3629    1.0000 </r>
       <r>   -5.3626    1.0000 </r>
       <r>   -4.7194    1.0000 </r>
       <r>   -4.6883    1.0000 </r>
       <r>   -4.6861    1.0000 </r>
       <r>   -2.2270    0.0000 </r>
       <r>   -2.1110    0.0000 </r>
       <r>   -2.0552    0.0000 </r>
       <r>   -2.0399    0.0000 </r>
       <r>   -1.9970    0.0000 </r>
       <r>   -1.9939    0.0000 </r>
       <r>   -1.9831    0.0000 </r>
       <r>   -1.9811    0.0000 </r>
       <r>   -1.7354    0.0000 </r>
       <r>   -1.7323    0.0000 </r>
       <r>   -1.7104    0.0000 </r>
       <r>   -1.7076    0.0000 </r>
       <r>   -1.5076    0.0000 </r>
       <r>   -1.4611    0.0000 </r>
       <r>   -1.4588    0.0000 </r>
       <r>   -1.1539    0.0000 </r>
       <r>   -1.1521    0.0000 </r>
       <r>   -1.0169    0.0000 </r>
       <r>   -0.6171    0.0000 </r>
       <r>   -0.6160    0.0000 </r>
       <r>   -0.5489    0.0000 </r>
       <r>   -0.1630    0.0000 </r>
       <r>    0.0257    0.0000 </r>
       <r>    0.1598    0.0000 </r>
       <r>    0.1609    0.0000 </r>
       <r>    0.1625    0.0000 </r>
       <r>    0.1636    0.0000 </r>
       <r>    0.2345    0.0000 </r>
       <r>    0.2367    0.0000 </r>
       <r>    0.2370    0.0000 </r>
       <r>    0.2744    0.0000 </r>
       <r>    0.4598    0.0000 </r>
       <r>    0.6608    0.0000 </r>
       <r>    0.6992    0.0000 </r>
       <r>    0.7059    0.0000 </r>
       <r>    0.7706    0.0000 </r>
       <r>    0.7732    0.0000 </r>
       <r>    0.8003    0.0000 </r>
       <r>    0.8011    0.0000 </r>
       <r>    0.8851    0.0000 </r>
       <r>    0.8863    0.0000 </r>
       <r>    0.8935    0.0000 </r>
       <r>    0.9080    0.0000 </r>
       <r>    0.9089    0.0000 </r>
       <r>    0.9560    0.0000 </r>
       <r>    0.9679    0.0000 </r>
       <r>    0.9714    0.0000 </r>
       <r>    1.1113    0.0000 </r>
       <r>    1.1786    0.0000 </r>
       <r>    1.1803    0.0000 </r>
       <r>    1.1859    0.0000 </r>
       <r>    1.2093    0.0000 </r>
       <r>    1.2497    0.0000 </r>
       <r>    1.2522    0.0000 </r>
       <r>    1.2778    0.0000 </r>
       <r>    1.2799    0.0000 </r>
       <r>    1.3272    0.0000 </r>
      </set>
      <set comment="kpoint 3">
       <r>  -26.5721    1.0000 </r>
[...]
       <r>   -23.1515     0.0000    24.0000 </r>
       <r>   -23.0490     0.0000    24.0000 </r>
       <r>   -22.9464     0.0000    24.0000 </r>
       <r>   -22.8439     0.0000    24.0000 </r>
       <r>   -22.7414     0.0000    24.0000 </r>
       <r>   -22.6389     0.0000    24.0000 </r>
       <r>   -22.5363     0.0000    24.0000 </r>
       <r>   -22.4338     0.0000    24.0000 </r>
       <r>   -22.3313     0.0000    24.0000 </r>
       <r>   -22.2288     0.0000    24.0000 </r>
       <r>   -22.1262     0.0000    24.0000 </r>
       <r>   -22.0237     0.0000    24.0000 </r>
       <r>   -21.9212    91.9768    33.4300 </r>
       <r>   -21.8187     0.0000    36.0000 </r>
       <r>   -21.7161     0.0000    36.0000 </r>
       <r>   -21.6136     0.0000    36.0000 </r>
       <r>   -21.5111    36.2814    39.7198 </r>
       <r>   -21.4086    10.0786    42.0000 </r>
       <r>   -21.3060     0.0000    42.0000 </r>
       <r>   -21.2035    16.4816    43.6898 </r>
       <r>   -21.1010    14.8865    46.1263 </r>
       <r>   -20.9985    12.9948    47.9991 </r>
       <r>   -20.8959     0.0000    48.0000 </r>
       <r>   -20.7934     0.0000    48.0000 </r>
       <r>   -20.6909     0.0000    48.0000 </r>
       <r>   -20.5884     0.0000    48.0000 </r>
       <r>   -20.4858     0.0000    48.0000 </r>
       <r>   -20.3833     8.2571    48.8466 </r>
       <r>   -20.2808     1.9495    52.0000 </r>
       <r>   -20.1783     0.0000    52.0000 </r>
       <r>   -20.0757    24.0323    54.4639 </r>
       <r>   -19.9732     9.3019    55.6204 </r>
       <r>   -19.8707    10.7984    56.9738 </r>
       <r>   -19.7682    11.5428    58.3168 </r>
       <r>   -19.6656     0.0000    60.0000 </r>
       <r>   -19.5631     0.0000    60.0000 </r>
       <r>   -19.4606     0.0000    60.0000 </r>
       <r>   -19.3581     0.0000    60.0000 </r>
       <r>   -19.2555     0.0000    60.0000 </r>
       <r>   -19.1530    10.5247    61.0790 </r>
       <r>   -19.0505    39.3355    65.9664 </r>
       <r>   -18.9479     0.0000    66.0000 </r>
       <r>   -18.8454     0.0000    66.0000 </r>
       <r>   -18.7429     0.0000    66.0000 </r>
       <r>   -18.6404     8.0870    66.8291 </r>
       <r>   -18.5378    16.2513    68.9329 </r>
       <r>   -18.4353    13.2346    70.3902 </r>
       <r>   -18.3328     2.8337    71.1572 </r>
       <r>   -18.2303     6.5997    71.9100 </r>
       <r>   -18.1277    11.7042    74.0000 </r>
       <r>   -18.0252     0.0000    74.0000 </r>
       <r>   -17.9227     2.7991    74.2870 </r>
       <r>   -17.8202     8.3893    75.3601 </r>
       <r>   -17.7176    17.9318    77.5719 </r>
       <r>   -17.6151    15.4626    79.5187 </r>
       <r>   -17.5126     9.4970    80.7070 </r>
       <r>   -17.4101    24.2732    83.6220 </r>
       <r>   -17.3075     0.0000    84.0000 </r>
       <r>   -17.2050     0.0000    84.0000 </r>
       <r>   -17.1025     0.0000    84.0000 </r>
       <r>   -17.0000     0.0000    84.0000 </r>
       <r>   -16.8974     0.0000    84.0000 </r>
       <r>   -16.7949     0.0000    84.0000 </r>
       <r>   -16.6924     0.0000    84.0000 </r>
       <r>   -16.5899     0.0000    84.0000 </r>
       <r>   -16.4873    24.2516    86.4864 </r>
       <r>   -16.3848     8.2789    87.5155 </r>
       <r>   -16.2823    11.5084    88.9466 </r>
       <r>   -16.1798    38.9627    93.2947 </r>
       <r>   -16.0772    25.0360    96.0002 </r>
       <r>   -15.9747   117.0420   108.0000 </r>
       <r>   -15.8722     0.0000   108.0000 </r>
       <r>   -15.7697     0.0000   108.0000 </r>
       <r>   -15.6671     0.0000   108.0000 </r>
       <r>   -15.5646     0.2555   108.0262 </r>
       <r>   -15.4621    42.0100   113.1738 </r>
       <r>   -15.3596     1.4447   114.1481 </r>
       <r>   -15.2570     3.5635   114.6987 </r>
       <r>   -15.1545     6.7141   115.4884 </r>
       <r>   -15.0520     5.9929   116.2811 </r>
       <r>   -14.9494     7.2424   117.1759 </r>
       <r>   -14.8469     3.5453   117.6302 </r>
       <r>   -14.7444    22.0771   119.9968 </r>
       <r>   -14.6419     5.1524   120.5283 </r>
       <r>   -14.5393     7.5841   121.4109 </r>
       <r>   -14.4368    13.3407   123.3011 </r>
       <r>   -14.3343    18.2057   126.0000 </r>
       <r>   -14.2318    16.5473   127.6965 </r>
       <r>   -14.1292    31.8605   132.0000 </r>
       <r>   -14.0267     0.0000   132.0000 </r>
       <r>   -13.9242     0.0000   132.0000 </r>
       <r>   -13.8217     0.0000   132.0000 </r>
       <r>   -13.7191     0.0000   132.0000 </r>
       <r>   -13.6166     0.0000   132.0000 </r>
       <r>   -13.5141    32.1242   135.2936 </r>
       <r>   -13.4116    64.4497   143.9413 </r>
       <r>   -13.3090     0.0000   144.0000 </r>
       <r>   -13.2065     0.0000   144.0000 </r>
       <r>   -13.1040     0.0000   144.0000 </r>
       <r>   -13.0015     0.0000   144.0000 </r>
       <r>   -12.8989    14.0989   145.4455 </r>
       <r>   -12.7964    12.4782   147.1794 </r>
       <r>   -12.6939    26.0095   150.0000 </r>
       <r>   -12.5914   116.9634   161.9918 </r>
       <r>   -12.4888     0.0000   162.0000 </r>
       <r>   -12.3863     0.0000   162.0000 </r>
       <r>   -12.2838    26.3310   164.6996 </r>
       <r>   -12.1813     9.4268   168.0000 </r>
       <r>   -12.0787    24.7103   170.5334 </r>
       <r>   -11.9762    35.0215   176.4911 </r>
       <r>   -11.8737     3.9333   177.0366 </r>
       <r>   -11.7712    14.8631   178.8906 </r>
       <r>   -11.6686     6.9283   179.7770 </r>
       <r>   -11.5661     0.0000   180.0000 </r>
       <r>   -11.4636     0.0000   180.0000 </r>
       <r>   -11.3611     0.0000   180.0000 </r>
       <r>   -11.2585     6.4721   180.6636 </r>
       <r>   -11.1560    14.6446   182.6015 </r>
       <r>   -11.0535    13.6086   184.7286 </r>
       <r>   -10.9509    30.5873   188.1360 </r>
       <r>   -10.8484    32.1159   191.9594 </r>
       <r>   -10.7459    27.8971   194.8602 </r>
       <r>   -10.6434    21.6388   197.6852 </r>
       <r>   -10.5408     2.7560   198.2826 </r>
       <r>   -10.4383    12.1293   199.8103 </r>
       <r>   -10.3358    20.5290   202.3381 </r>
       <r>   -10.2333    18.6122   206.3416 </r>
       <r>   -10.1307    29.2608   210.0000 </r>
       <r>   -10.0282    77.1764   217.9126 </r>
       <r>    -9.9257    32.0369   221.2846 </r>
       <r>    -9.8232    82.1591   230.4235 </r>
       <r>    -9.7206    28.9486   235.1680 </r>
       <r>    -9.6181    53.5434   241.1229 </r>
       <r>    -9.5156    76.5019   251.4769 </r>
       <r>    -9.4131     0.0000   252.0000 </r>
       <r>    -9.3105    20.6502   254.1172 </r>
       <r>    -9.2080    11.8108   255.7776 </r>
       <r>    -9.1055    54.8530   263.0907 </r>
       <r>    -9.0030     6.8273   264.0000 </r>
       <r>    -8.9004     0.0000   264.0000 </r>
       <r>    -8.7979     0.0000   264.0000 </r>
       <r>    -8.6954    50.5868   269.1864 </r>
       <r>    -8.5929    35.5156   273.6413 </r>
       <r>    -8.4903    32.3361   277.5820 </r>
       <r>    -8.3878    10.5727   279.5840 </r>
       <r>    -8.2853    11.8823   281.1516 </r>
       <r>    -8.1828     6.5845   281.9751 </r>
       <r>    -8.0802     0.0000   282.0000 </r>
       <r>    -7.9777     0.5908   282.0606 </r>
       <r>    -7.8752     5.8191   284.7633 </r>
       <r>    -7.7727    35.9566   288.5865 </r>
       <r>    -7.6701    56.8866   298.1657 </r>
       <r>    -7.5676    62.7481   306.0000 </r>
       <r>    -7.4651     0.0000   306.0000 </r>
       <r>    -7.3625     0.0000   306.0000 </r>
       <r>    -7.2600     0.0000   306.0000 </r>
       <r>    -7.1575     0.0000   306.0000 </r>
       <r>    -7.0550    26.2410   308.6904 </r>
       <r>    -6.9524     4.9013   310.0025 </r>
       <r>    -6.8499    22.4576   314.4692 </r>
       <r>    -6.7474    26.9848   318.0000 </r>
       <r>    -6.6449     0.0000   318.0000 </r>
       <r>    -6.5423     0.0566   318.0058 </r>
       <r>    -6.4398    90.9044   328.9536 </r>
       <r>    -6.3373     0.0012   330.0001 </r>
       <r>    -6.2348    55.6207   335.7027 </r>
       <r>    -6.1322    37.3887   342.0000 </r>
       <r>    -6.0297    18.8662   343.9343 </r>
       <r>    -5.9272    29.2606   348.0000 </r>
       <r>    -5.8247     0.0000   348.0000 </r>
       <r>    -5.7221     0.0000   348.0000 </r>
       <r>    -5.6196     0.0000   348.0000 </r>
       <r>    -5.5171    17.8745   349.8326 </r>
       <r>    -5.4146    32.9265   354.3758 </r>
       <r>    -5.3120    44.2150   360.0000 </r>
       <r>    -5.2095     0.0000   360.0000 </r>
       <r>    -5.1070     0.0000   360.0000 </r>
       <r>    -5.0045     0.0000   360.0000 </r>
       <r>    -4.9019     0.0000   360.0000 </r>
       <r>    -4.7994     0.0000   360.0000 </r>
       <r>    -4.6969    27.7621   362.8463 </r>
       <r>    -4.5944     0.0000   366.0000 </r>
       <r>    -4.4918     0.0000   366.0000 </r>
       <r>    -4.3893     0.0000   366.0000 </r>
       <r>    -4.2868     0.0000   366.0000 </r>
       <r>    -4.1843     0.0000   366.0000 </r>
       <r>    -4.0817     0.0000   366.0000 </r>
       <r>    -3.9792     0.0000   366.0000 </r>
       <r>    -3.8767     0.0000   366.0000 </r>
       <r>    -3.7742     0.0000   366.0000 </r>
       <r>    -3.6716     0.0000   366.0000 </r>
       <r>    -3.5691     0.0000   366.0000 </r>
       <r>    -3.4666     0.0000   366.0000 </r>
       <r>    -3.3640     0.0000   366.0000 </r>
       <r>    -3.2615     0.0000   366.0000 </r>
       <r>    -3.1590     0.0000   366.0000 </r>
       <r>    -3.0565     0.0000   366.0000 </r>
       <r>    -2.9539     0.0000   366.0000 </r>
       <r>    -2.8514     0.0000   366.0000 </r>
       <r>    -2.7489     0.0000   366.0000 </r>
       <r>    -2.6464     0.0000   366.0000 </r>
       <r>    -2.5438     0.0000   366.0000 </r>
       <r>    -2.4413     0.0000   366.0000 </r>
       <r>    -2.3388     0.0000   366.0000 </r>
       <r>    -2.2363     0.3063   366.0314 </r>
       <r>    -2.1337    26.1357   369.3463 </r>
       <r>    -2.0312    40.7506   374.0447 </r>
       <r>    -1.9287    63.6520   381.9927 </r>
       <r>    -1.8262     0.0000   382.0000 </r>
       <r>    -1.7236    34.6623   385.5538 </r>
       <r>    -1.6211     0.0000   390.0000 </r>
       <r>    -1.5186     0.2803   390.0287 </r>
       <r>    -1.4161    48.7676   396.0000 </r>
       <r>    -1.3135     0.0000   396.0000 </r>
       <r>    -1.2110     0.0000   396.0000 </r>
       <r>    -1.1085    29.3088   399.0049 </r>
       <r>    -1.0060    20.3247   401.9839 </r>
       <r>    -0.9034     0.0000   402.0000 </r>
       <r>    -0.8009     0.0000   402.0000 </r>
       <r>    -0.6984     0.0000   402.0000 </r>
       <r>    -0.5959    30.8604   405.1640 </r>
       <r>    -0.4933    14.9546   408.0000 </r>
       <r>    -0.3908     0.0000   408.0000 </r>
       <r>    -0.2883     0.0000   408.0000 </r>
       <r>    -0.1858     0.0015   408.0002 </r>
       <r>    -0.0832    21.2280   410.2432 </r>
       <r>     0.0193     7.9361   411.7803 </r>
       <r>     0.1218    12.5954   413.2914 </r>
       <r>     0.2243    72.6096   421.3111 </r>
       <r>     0.3269    18.7871   425.3595 </r>
       <r>     0.4294    17.9523   427.4739 </r>
       <r>     0.5319    21.9775   431.0533 </r>
       <r>     0.6345    13.9981   433.0685 </r>
       <r>     0.7370    49.5655   438.5151 </r>
       <r>     0.8395    49.9561   444.7218 </r>
       <r>     0.9420    61.0224   452.2564 </r>
       <r>     1.0446    37.1236   457.9396 </r>
       <r>     1.1471    33.9811   461.8173 </r>
       <r>     1.2496    59.6676   469.5842 </r>
       <r>     1.3521    60.4206   478.9947 </r>
       <r>     1.4547     2.2757   480.0000 </r>
       <r>     1.5572     0.0000   480.0000 </r>
       <r>     1.6597     0.0000   480.0000 </r>
       <r>     1.7622     0.0000   480.0000 </r>
       <r>     1.8648     0.0000   480.0000 </r>
       <r>     1.9673     0.0000   480.0000 </r>
       <r>     2.0698     0.0000   480.0000 </r>
       <r>     2.1723     0.0000   480.0000 </r>
       <r>     2.2749     0.0000   480.0000 </r>
       <r>     2.3774     0.0000   480.0000 </r>
       <r>     2.4799     0.0000   480.0000 </r>
       <r>     2.5824     0.0000   480.0000 </r>
       <r>     2.6850     0.0000   480.0000 </r>
       <r>     2.7875     0.0000   480.0000 </r>
      </set>
     </set>
    </array>
   </total>
  </dos>
 </calculation>
 <structure name="finalpos" >
  <crystal>
   <varray name="basis" >
    <v>      23.13690353      -0.00004402       0.00000000 </v>
    <v>     -11.56846020      20.03937650       0.00000000 </v>
    <v>       0.00000000       0.00000000      20.00000000 </v>
   </varray>
   <i name="volume">   9272.97223331 </i>
   <varray name="rec_basis" >
    <v>       0.04322104       0.02495092       0.00000000 </v>
    <v>       0.00000009       0.04990181       0.00000000 </v>
    <v>       0.00000000       0.00000000       0.05000000 </v>
   </varray>
  </crystal>
  <varray name="positions" >
   <v>       0.49777795       0.20440618       0.42947019 </v>
   <v>       0.73872282       0.50953446       0.42968772 </v>
   <v>       0.74250946       0.51741063       0.54872597 </v>
   <v>       0.48775089       0.19926748       0.54836106 </v>
   <v>       0.80225438       0.26764165       0.42936304 </v>
   <v>       0.22287921       0.71940664       0.42915139 </v>
   <v>       0.80698574       0.26318792       0.54831428 </v>
   <v>       0.21792604       0.72394540       0.54806465 </v>
   <v>       0.52737405       0.78289943       0.42922255 </v>
   <v>       0.28732063       0.47887303       0.42929854 </v>
   <v>       0.53784069       0.78857265       0.54804958 </v>
   <v>       0.28251090       0.46928010       0.54818387 </v>
   <v>       0.63184236       0.36612713       0.48745146 </v>
   <v>       0.64019010       0.24043188       0.48743865 </v>
   <v>       0.76578094       0.37404287       0.48767010 </v>
   <v>       0.39365137       0.62150187       0.48727853 </v>
   <v>       0.38495603       0.74691619       0.48697638 </v>
   <v>       0.25937360       0.61316852       0.48694634 </v>
   <v>       0.53098006       0.36911114       0.49100490 </v>
   <v>       0.49723059       0.40480870       0.49342049 </v>
   <v>       0.49714380       0.26197971       0.42999349 </v>
   <v>       0.79678500       0.50981396       0.43033408 </v>
   <v>       0.71082610       0.50579078       0.48971876 </v>
   <v>       0.53112868       0.47514884       0.49443474 </v>
   <v>       0.60137092       0.50840230       0.49372026 </v>
   <v>       0.63663506       0.47423253       0.49109127 </v>
   <v>       0.60137622       0.40407689       0.48953105 </v>
   <v>       0.48747546       0.25710616       0.54777704 </v>
   <v>       0.50045744       0.29553727       0.48956496 </v>
   <v>       0.80052031       0.51751552       0.54827180 </v>
   <v>       0.86950838       0.47494000       0.49113035 </v>
   <v>       0.93895366       0.50881143       0.49340877 </v>
   <v>       0.50049521       0.17976014       0.48959034 </v>
   <v>       0.49787918       0.06770918       0.49389285 </v>
   <v>       0.53206926       0.13714778       0.49124800 </v>
   <v>       0.60222688       0.17203033       0.48952922 </v>
   <v>       0.83419653       0.40456045       0.48962531 </v>
   <v>       0.82642790       0.50543092       0.48988419 </v>
   <v>       0.63719560       0.13660993       0.49090574 </v>
   <v>       0.60148419       0.06716762       0.49316089 </v>
   <v>       0.42348317       0.92010254       0.49312665 </v>
   <v>       0.38782623       0.85065477       0.49071937 </v>
   <v>       0.74459116       0.20950604       0.42993155 </v>
   <v>       0.82670998       0.29521837       0.48944291 </v>
   <v>       0.28048624       0.77760037       0.42973871 </v>
   <v>       0.19835756       0.69185898       0.48922115 </v>
   <v>       0.53114068       0.03071635       0.49428166 </v>
   <v>       0.49383130       0.95660115       0.49418967 </v>
   <v>       0.97553570       0.47505466       0.49423136 </v>
   <v>       0.93867347       0.40481080       0.49353798 </v>
   <v>       0.86922925       0.36941982       0.49103917 </v>
   <v>       0.04964487       0.51199705       0.49416710 </v>
   <v>       0.15589039       0.61766723       0.49081338 </v>
   <v>       0.08646003       0.58224463       0.49352397 </v>
   <v>       0.74902448       0.20520814       0.54779266 </v>
   <v>       0.71078240       0.17958601       0.48949988 </v>
   <v>       0.27588859       0.78194997       0.54756947 </v>
   <v>       0.31422434       0.80758702       0.48932302 </v>
   <v>       0.52825572       0.58282618       0.49367162 </v>
   <v>       0.49451566       0.61853081       0.49123561 </v>
   <v>       0.08626775       0.47828069       0.49314311 </v>
   <v>       0.15571741       0.51219392       0.49068021 </v>
   <v>       0.52817805       0.72541806       0.42994285 </v>
   <v>       0.52476746       0.80774937       0.48924846 </v>
   <v>       0.22918406       0.47842597       0.42978051 </v>
   <v>       0.31472224       0.48182072       0.48943890 </v>
   <v>       0.49436861       0.51248537       0.49456687 </v>
   <v>       0.42412589       0.58357047       0.48957481 </v>
   <v>       0.38889264       0.51342209       0.49119169 </v>
   <v>       0.42413184       0.47923695       0.49390076 </v>
   <v>       0.42287190       0.81530734       0.48917621 </v>
   <v>       0.49304184       0.85023678       0.49084462 </v>
   <v>       0.52714550       0.91966603       0.49357708 </v>
   <v>       0.19096079       0.58257749       0.48914806 </v>
   <v>       0.53809572       0.73072877       0.54770145 </v>
   <v>       0.52503913       0.69209796       0.48963128 </v>
   <v>       0.22437862       0.46897348       0.54757661 </v>
   <v>       0.19892224       0.48183434       0.48930636 </v>
   <v>       0.68055657       0.39316057       0.48552802 </v>
   <v>       0.44290523       0.37609587       0.49400302 </v>
   <v>       0.49773550       0.28401849       0.38142764 </v>
   <v>       0.63055368       0.56267526       0.49477547 </v>
   <v>       0.48007001       0.27504799       0.59583363 </v>
   <v>       0.61316850       0.26211832       0.48516668 </v>
   <v>       0.39473394       0.94567596       0.49362123 </v>
   <v>       0.74408149       0.32532369       0.48568454 </v>
   <v>       0.96442165       0.56312064       0.49406934 </v>
   <v>       0.81860111       0.50986962       0.38179567 </v>
   <v>       0.44359668       0.04262143       0.49516637 </v>
   <v>       0.06123314       0.61130095       0.49465674 </v>
   <v>       0.82538417       0.52398283       0.59647672 </v>
   <v>       0.63022412       0.04158864       0.49347946 </v>
   <v>       0.72275571       0.18781735       0.38137576 </v>
   <v>       0.30235730       0.79927512       0.38119096 </v>
   <v>       0.96387884       0.37573065       0.49446395 </v>
   <v>       0.73079109       0.18011888       0.59592363 </v>
   <v>       0.29401860       0.80705561       0.59570895 </v>
   <v>       0.34495295       0.59445398       0.48502063 </v>
   <v>       0.58257979       0.61155458       0.49425901 </v>
   <v>       0.41201508       0.72526698       0.48480938 </v>
   <v>       0.28097900       0.66187403       0.48488685 </v>
   <v>       0.06079134       0.42396811       0.49370910 </v>
   <v>       0.52758605       0.70325484       0.38145761 </v>
   <v>       0.20779433       0.47903164       0.38118588 </v>
   <v>       0.39492507       0.42496464       0.49494197 </v>
   <v>       0.58142452       0.94480860       0.49471224 </v>
   <v>       0.54552526       0.71293826       0.59584409 </v>
   <v>       0.19903582       0.46166065       0.59562420 </v>
  </varray>
 </structure>
</modeling>
