<?xml version="1.0" encoding="ISO-8859-1"?>
<modeling>
 <generator>
  <i name="program" type="string">vasp </i>
  <i name="version" type="string">5.4.4.18Apr17-6-g9f103f2a35  </i>
  <i name="subversion" type="string">(build Jun 07 2020 16:50:00) complex            parallel </i>
  <i name="platform" type="string">LinuxIFC </i>
  <i name="date" type="string">2023 02 13 </i>
  <i name="time" type="string">16:38:08 </i>
 </generator>
 <incar>
  <i type="string" name="SYSTEM">Simulation for cell shape cell volume r</i>
  <i type="int" name="ISTART">     1</i>
  <i type="string" name="PREC">high</i>
  <i type="string" name="ALGO">48</i>
  <i type="int" name="ICHARG">    11</i>
  <i type="int" name="NELM">   200</i>
  <i type="int" name="IBRION">    -1</i>
  <i name="EDIFF">      0.00001000</i>
  <i name="EDIFFG">     -0.01000000</i>
  <i type="int" name="NSW">     0</i>
  <i type="int" name="ISIF">     2</i>
  <i name="ENCUT">    500.00000000</i>
  <i name="POTIM">      0.30000000</i>
  <i type="string" name="LREAL">A</i>
  <i type="int" name="ISMEAR">     0</i>
  <i name="SIGMA">      0.01000000</i>
  <i type="int" name="NWRITE">     0</i>
  <i type="logical" name="LWAVE"> F  </i>
  <i type="logical" name="LCHARG"> F  </i>
  <v type="int" name="KPOINT_BSE">    -1     0     0     0</v>
  <i type="int" name="NELM">   200</i>
  <i type="string" name="GGA">PE</i>
 </incar>
 <structure name="primitive_cell" >
  <crystal>
   <varray name="basis" >
    <v>      22.16957903       0.01162457       0.00000000 </v>
    <v>     -11.07518319      19.12388837       0.00000000 </v>
    <v>       0.00000000       0.00000000      20.00000000 </v>
   </varray>
   <i name="volume">   8481.94597739 </i>
   <varray name="rec_basis" >
    <v>       0.04509316       0.02611472       0.00000000 </v>
    <v>      -0.00002741       0.05227475       0.00000000 </v>
    <v>       0.00000000       0.00000000       0.05000000 </v>
   </varray>
  </crystal>
  <varray name="positions" >
   <v>      -0.30530039      -0.49410172      -0.47969184 </v>
   <v>      -0.35496968       0.44939708      -0.49804215 </v>
   <v>      -0.35188507      -0.42758208      -0.45818767 </v>
   <v>      -0.41994264       0.43966206       0.48801202 </v>
   <v>      -0.34780757       0.38558510       0.49503756 </v>
   <v>      -0.23766871       0.45084492       0.49928039 </v>
   <v>      -0.27974791       0.39667367       0.49528655 </v>
   <v>      -0.40638703      -0.44823267      -0.47116374 </v>
   <v>      -0.44517619       0.48519964       0.49984848 </v>
   <v>      -0.45727177       0.39310971       0.46889016 </v>
   <v>      -0.40418935       0.31730843       0.49448109 </v>
   <v>      -0.45823855       0.30528522       0.49781458 </v>
   <v>      -0.26807978       0.34015636       0.49466484 </v>
   <v>       0.48774426       0.45738993       0.48127708 </v>
   <v>      -0.44065635      -0.41138463      -0.45917093 </v>
   <v>      -0.15038034       0.45078448       0.47093940 </v>
   <v>      -0.35188687      -0.32598395      -0.41137823 </v>
   <v>      -0.39322321       0.26007564       0.49397700 </v>
   <v>      -0.32517410       0.27186563       0.49419391 </v>
   <v>      -0.40494324      -0.34061798      -0.42680366 </v>
   <v>      -0.14174292       0.41268080       0.48896143 </v>
   <v>      -0.19735076       0.34709858      -0.49902175 </v>
   <v>       0.48851030      -0.44455953      -0.47907074 </v>
   <v>       0.45494723       0.49284706       0.49100938 </v>
   <v>      -0.40084751      -0.29968261      -0.46115564 </v>
   <v>      -0.43375627      -0.33954787      -0.38241940 </v>
   <v>      -0.31322538       0.22965758       0.49730808 </v>
   <v>      -0.45708639       0.18896915       0.49966736 </v>
   <v>      -0.07118254       0.43711657      -0.49953910 </v>
   <v>      -0.03119009      -0.49543056       0.48258577 </v>
   <v>       0.48597379       0.18225049      -0.48439752 </v>
   <v>      -0.19098935       0.29659318      -0.48274875 </v>
   <v>       0.45147315      -0.40917472      -0.46965985 </v>
   <v>       0.48068850      -0.35628136      -0.46949746 </v>
   <v>      -0.44702559       0.13340616       0.48760898 </v>
   <v>      -0.40021394       0.14232841       0.46986789 </v>
   <v>      -0.04419710       0.39735324      -0.47144867 </v>
   <v>       0.03699058      -0.46340185       0.49186314 </v>
   <v>      -0.07860039       0.34263559      -0.45890264 </v>
   <v>       0.38089066      -0.43728110      -0.45798748 </v>
   <v>       0.33970796      -0.49980096      -0.44948523 </v>
   <v>       0.06535554      -0.49792460      -0.47917097 </v>
   <v>       0.02691400       0.43093322      -0.45977720 </v>
   <v>       0.41983839       0.06976369      -0.46068957 </v>
   <v>      -0.49329718       0.06251560       0.49866010 </v>
   <v>       0.45816702      -0.28619952      -0.45603512 </v>
   <v>       0.35718094      -0.38407865      -0.45642422 </v>
   <v>       0.43999881       0.03532077      -0.47328793 </v>
   <v>       0.15870713      -0.35056158      -0.44408528 </v>
   <v>       0.40135783      -0.31164630      -0.45633826 </v>
   <v>      -0.46605628       0.02250696       0.48053552 </v>
   <v>       0.13787359      -0.46127722      -0.47032672 </v>
   <v>       0.06117721       0.39425289      -0.42815574 </v>
   <v>       0.02232700       0.34113654      -0.41276770 </v>
   <v>       0.18017887      -0.39106376      -0.45571076 </v>
   <v>       0.09163444       0.42284085      -0.38389130 </v>
   <v>       0.25341134      -0.46816647      -0.45473508 </v>
   <v>       0.28496989      -0.41118625      -0.45568142 </v>
   <v>       0.48908864      -0.16760283      -0.44614958 </v>
   <v>       0.16144691      -0.49042152      -0.47274533 </v>
   <v>       0.40239617      -0.03600126      -0.46161713 </v>
   <v>       0.09736460       0.38980857      -0.46293114 </v>
   <v>       0.37430712      -0.26635925      -0.45601247 </v>
   <v>       0.31768609      -0.03146279      -0.41406110 </v>
   <v>       0.49763567      -0.04595305       0.48967658 </v>
   <v>       0.42708820      -0.18929251      -0.45724869 </v>
   <v>       0.43495126      -0.07442603      -0.48109694 </v>
   <v>       0.33158091      -0.07044907      -0.42982540 </v>
   <v>       0.27697035      -0.26280769      -0.45331583 </v>
   <v>       0.25697905      -0.36692270      -0.45530394 </v>
   <v>       0.30215394      -0.29446116      -0.45504808 </v>
   <v>       0.29076586      -0.10653640      -0.46460641 </v>
   <v>       0.32965919      -0.10120977      -0.38576205 </v>
   <v>       0.39919088      -0.14709393      -0.47191172 </v>
   <v>       0.34652015      -0.17100437      -0.47439115 </v>
  </varray>
 </structure>
 <varray name="primitive_index" >
  <v type="int" >        1 </v>
  <v type="int" >       58 </v>
  <v type="int" >       13 </v>
  <v type="int" >       69 </v>
  <v type="int" >       57 </v>
  <v type="int" >        8 </v>
  <v type="int" >       35 </v>
  <v type="int" >       45 </v>
  <v type="int" >       61 </v>
  <v type="int" >       28 </v>
  <v type="int" >       34 </v>
  <v type="int" >        7 </v>
  <v type="int" >       31 </v>
  <v type="int" >       68 </v>
  <v type="int" >       46 </v>
  <v type="int" >       29 </v>
  <v type="int" >       14 </v>
  <v type="int" >       33 </v>
  <v type="int" >       32 </v>
  <v type="int" >       48 </v>
  <v type="int" >       72 </v>
  <v type="int" >       36 </v>
  <v type="int" >       47 </v>
  <v type="int" >       67 </v>
  <v type="int" >       15 </v>
  <v type="int" >       16 </v>
  <v type="int" >        9 </v>
  <v type="int" >       37 </v>
  <v type="int" >       62 </v>
  <v type="int" >       71 </v>
  <v type="int" >        3 </v>
  <v type="int" >        2 </v>
  <v type="int" >       64 </v>
  <v type="int" >       17 </v>
  <v type="int" >       75 </v>
  <v type="int" >       30 </v>
  <v type="int" >       49 </v>
  <v type="int" >       70 </v>
  <v type="int" >       18 </v>
  <v type="int" >       60 </v>
  <v type="int" >        4 </v>
  <v type="int" >       51 </v>
  <v type="int" >       50 </v>
  <v type="int" >       23 </v>
  <v type="int" >       63 </v>
  <v type="int" >       10 </v>
  <v type="int" >       59 </v>
  <v type="int" >       53 </v>
  <v type="int" >        5 </v>
  <v type="int" >       41 </v>
  <v type="int" >       74 </v>
  <v type="int" >       65 </v>
  <v type="int" >       52 </v>
  <v type="int" >       19 </v>
  <v type="int" >       43 </v>
  <v type="int" >       21 </v>
  <v type="int" >       11 </v>
  <v type="int" >       42 </v>
  <v type="int" >        6 </v>
  <v type="int" >       22 </v>
  <v type="int" >       54 </v>
  <v type="int" >       20 </v>
  <v type="int" >       40 </v>
  <v type="int" >       24 </v>
  <v type="int" >       73 </v>
  <v type="int" >       44 </v>
  <v type="int" >       55 </v>
  <v type="int" >       56 </v>
  <v type="int" >       12 </v>
  <v type="int" >       38 </v>
  <v type="int" >       39 </v>
  <v type="int" >       25 </v>
  <v type="int" >       26 </v>
  <v type="int" >       66 </v>
  <v type="int" >       27 </v>
 </varray>
 <kpoints>
  <generation param="listgenerated">
   <i name="divisions" type="int">      20 </i>
   <v>       0.00000000       0.00000000       0.00000000 </v>
   <v>       0.50000000       0.00000000       0.00000000 </v>
   <v>       0.33333333       0.33333333       0.00000000 </v>
   <v>       0.00000000       0.00000000       0.00000000 </v>
  </generation>
  <varray name="kpointlist" >
   <v>       0.00000000       0.00000000       0.00000000 </v>
   <v>       0.02631579       0.00000000       0.00000000 </v>
   <v>       0.05263158       0.00000000       0.00000000 </v>
   <v>       0.07894737       0.00000000       0.00000000 </v>
   <v>       0.10526316       0.00000000       0.00000000 </v>
   <v>       0.13157895       0.00000000       0.00000000 </v>
   <v>       0.15789474       0.00000000       0.00000000 </v>
   <v>       0.18421053       0.00000000       0.00000000 </v>
   <v>       0.21052632       0.00000000       0.00000000 </v>
   <v>       0.23684211       0.00000000       0.00000000 </v>
   <v>       0.26315789       0.00000000       0.00000000 </v>
   <v>       0.28947368       0.00000000       0.00000000 </v>
   <v>       0.31578947       0.00000000       0.00000000 </v>
   <v>       0.34210526       0.00000000       0.00000000 </v>
   <v>       0.36842105       0.00000000       0.00000000 </v>
   <v>       0.39473684       0.00000000       0.00000000 </v>
   <v>       0.42105263       0.00000000       0.00000000 </v>
   <v>       0.44736842       0.00000000       0.00000000 </v>
   <v>       0.47368421       0.00000000       0.00000000 </v>
   <v>       0.50000000       0.00000000       0.00000000 </v>
   <v>       0.50000000       0.00000000       0.00000000 </v>
   <v>       0.49122807       0.01754386       0.00000000 </v>
   <v>       0.48245614       0.03508772       0.00000000 </v>
   <v>       0.47368421       0.05263158       0.00000000 </v>
   <v>       0.46491228       0.07017544       0.00000000 </v>
   <v>       0.45614035       0.08771930       0.00000000 </v>
   <v>       0.44736842       0.10526316       0.00000000 </v>
   <v>       0.43859649       0.12280702       0.00000000 </v>
   <v>       0.42982456       0.14035088       0.00000000 </v>
   <v>       0.42105263       0.15789474       0.00000000 </v>
   <v>       0.41228070       0.17543860       0.00000000 </v>
   <v>       0.40350877       0.19298246       0.00000000 </v>
   <v>       0.39473684       0.21052632       0.00000000 </v>
   <v>       0.38596491       0.22807018       0.00000000 </v>
   <v>       0.37719298       0.24561404       0.00000000 </v>
   <v>       0.36842105       0.26315789       0.00000000 </v>
   <v>       0.35964912       0.28070175       0.00000000 </v>
   <v>       0.35087719       0.29824561       0.00000000 </v>
   <v>       0.34210526       0.31578947       0.00000000 </v>
   <v>       0.33333333       0.33333333       0.00000000 </v>
   <v>       0.33333333       0.33333333       0.00000000 </v>
   <v>       0.31578947       0.31578947       0.00000000 </v>
   <v>       0.29824561       0.29824561       0.00000000 </v>
   <v>       0.28070175       0.28070175       0.00000000 </v>
   <v>       0.26315789       0.26315789       0.00000000 </v>
   <v>       0.24561404       0.24561404       0.00000000 </v>
   <v>       0.22807018       0.22807018       0.00000000 </v>
   <v>       0.21052632       0.21052632       0.00000000 </v>
   <v>       0.19298246       0.19298246       0.00000000 </v>
   <v>       0.17543860       0.17543860       0.00000000 </v>
   <v>       0.15789474       0.15789474       0.00000000 </v>
   <v>       0.14035088       0.14035088       0.00000000 </v>
   <v>       0.12280702       0.12280702       0.00000000 </v>
   <v>       0.10526316       0.10526316       0.00000000 </v>
   <v>       0.08771930       0.08771930       0.00000000 </v>
   <v>       0.07017544       0.07017544       0.00000000 </v>
   <v>       0.05263158       0.05263158       0.00000000 </v>
   <v>       0.03508772       0.03508772       0.00000000 </v>
   <v>       0.01754386       0.01754386       0.00000000 </v>
   <v>       0.00000000       0.00000000       0.00000000 </v>
  </varray>
  <varray name="weights" >
   <v>       0.01666667 </v>
   <v>       0.01666667 </v>
   <v>       0.01666667 </v>
   <v>       0.01666667 </v>
   <v>       0.01666667 </v>
   <v>       0.01666667 </v>
   <v>       0.01666667 </v>
   <v>       0.01666667 </v>
   <v>       0.01666667 </v>
   <v>       0.01666667 </v>
   <v>       0.01666667 </v>
   <v>       0.01666667 </v>
   <v>       0.01666667 </v>
   <v>       0.01666667 </v>
   <v>       0.01666667 </v>
   <v>       0.01666667 </v>
   <v>       0.01666667 </v>
   <v>       0.01666667 </v>
   <v>       0.01666667 </v>
   <v>       0.01666667 </v>
   <v>       0.01666667 </v>
   <v>       0.01666667 </v>
   <v>       0.01666667 </v>
   <v>       0.01666667 </v>
   <v>       0.01666667 </v>
   <v>       0.01666667 </v>
   <v>       0.01666667 </v>
   <v>       0.01666667 </v>
   <v>       0.01666667 </v>
   <v>       0.01666667 </v>
   <v>       0.01666667 </v>
   <v>       0.01666667 </v>
   <v>       0.01666667 </v>
   <v>       0.01666667 </v>
   <v>       0.01666667 </v>
   <v>       0.01666667 </v>
   <v>       0.01666667 </v>
   <v>       0.01666667 </v>
   <v>       0.01666667 </v>
   <v>       0.01666667 </v>
   <v>       0.01666667 </v>
   <v>       0.01666667 </v>
   <v>       0.01666667 </v>
   <v>       0.01666667 </v>
   <v>       0.01666667 </v>
   <v>       0.01666667 </v>
   <v>       0.01666667 </v>
   <v>       0.01666667 </v>
   <v>       0.01666667 </v>
   <v>       0.01666667 </v>
   <v>       0.01666667 </v>
   <v>       0.01666667 </v>
   <v>       0.01666667 </v>
   <v>       0.01666667 </v>
   <v>       0.01666667 </v>
   <v>       0.01666667 </v>
   <v>       0.01666667 </v>
   <v>       0.01666667 </v>
   <v>       0.01666667 </v>
   <v>       0.01666667 </v>
  </varray>
 </kpoints>
 <parameters>
  <separator name="general" >
   <i type="string" name="SYSTEM">Simulation for cell shape cell volume r</i>
   <i type="logical" name="LCOMPAT"> F  </i>
  </separator>
  <separator name="electronic" >
   <i type="string" name="PREC">high</i>
   <i name="ENMAX">    500.00000000</i>
   <i name="ENAUG">    644.87300000</i>
   <i name="EDIFF">      0.00001000</i>
   <i type="int" name="IALGO">    38</i>
   <i type="int" name="IWAVPR">    10</i>
   <i type="int" name="NBANDS">   176</i>
   <i name="NELECT">    252.00000000</i>
   <i type="int" name="TURBO">     0</i>
   <i type="int" name="IRESTART">     0</i>
   <i type="int" name="NREBOOT">     0</i>
   <i type="int" name="NMIN">     0</i>
   <i name="EREF">      0.00000000</i>
   <separator name="electronic smearing" >
    <i type="int" name="ISMEAR">     0</i>
    <i name="SIGMA">      0.01000000</i>
    <i name="KSPACING">      0.50000000</i>
    <i type="logical" name="KGAMMA"> T  </i>
   </separator>
   <separator name="electronic projectors" >
    <i type="logical" name="LREAL"> T  </i>
    <v name="ROPT">     -0.00040000     -0.00040000     -0.00040000     -0.00040000</v>
    <i type="int" name="LMAXPAW">  -100</i>
    <i type="int" name="LMAXMIX">     2</i>
    <i type="logical" name="NLSPLINE"> F  </i>
   </separator>
   <separator name="electronic startup" >
    <i type="int" name="ISTART">     1</i>
    <i type="int" name="ICHARG">    11</i>
    <i type="int" name="INIWAV">     1</i>
   </separator>
   <separator name="electronic spin" >
    <i type="int" name="ISPIN">     1</i>
    <i type="logical" name="LNONCOLLINEAR"> F  </i>
    <v name="MAGMOM">      1.00000000      1.00000000      1.00000000      1.00000000      1.00000000      1.00000000      1.00000000      1.00000000      1.00000000      1.00000000      1.00000000      1.00000000      1.00000000      1.00000000      1.00000000      1.00000000      1.00000000      1.00000000      1.00000000      1.00000000
      1.00000000      1.00000000      1.00000000      1.00000000      1.00000000      1.00000000      1.00000000      1.00000000      1.00000000      1.00000000      1.00000000      1.00000000      1.00000000      1.00000000      1.00000000      1.00000000      1.00000000      1.00000000      1.00000000      1.00000000
      1.00000000      1.00000000      1.00000000      1.00000000      1.00000000      1.00000000      1.00000000      1.00000000      1.00000000      1.00000000      1.00000000      1.00000000      1.00000000      1.00000000      1.00000000      1.00000000      1.00000000      1.00000000      1.00000000      1.00000000
      1.00000000      1.00000000      1.00000000      1.00000000      1.00000000      1.00000000      1.00000000      1.00000000      1.00000000      1.00000000      1.00000000      1.00000000      1.00000000      1.00000000      1.00000000</v>
    <i name="NUPDOWN">     -1.00000000</i>
    <i type="logical" name="LSORBIT"> F  </i>
    <v name="SAXIS">      0.00000000      0.00000000      1.00000000</v>
    <i type="logical" name="LSPIRAL"> F  </i>
    <v name="QSPIRAL">      0.00000000      0.00000000      0.00000000</v>
    <i type="logical" name="LZEROZ"> F  </i>
   </separator>
   <separator name="electronic exchange-correlation" >
    <i type="logical" name="LASPH"> F  </i>
    <i type="logical" name="LMETAGGA"> F  </i>
   </separator>
   <separator name="electronic convergence" >
    <i type="int" name="NELM">   200</i>
    <i type="int" name="NELMDL">     0</i>
    <i type="int" name="NELMIN">     2</i>
    <i name="ENINI">    500.00000000</i>
    <separator name="electronic convergence detail" >
     <i type="logical" name="LDIAG"> T  </i>
     <i type="logical" name="LSUBROT"> F  </i>
     <i name="WEIMIN">      0.00000000</i>
     <i name="EBREAK">      0.00000001</i>
     <i name="DEPER">      0.30000000</i>
     <i type="int" name="NRMM">     4</i>
     <i name="TIME">      0.40000000</i>
    </separator>
   </separator>
   <separator name="electronic mixer" >
    <i name="AMIX">      0.40000000</i>
    <i name="BMIX">      1.00000000</i>
    <i name="AMIN">      0.10000000</i>
    <i name="AMIX_MAG">      1.60000000</i>
    <i name="BMIX_MAG">      1.00000000</i>
    <separator name="electronic mixer details" >
     <i type="int" name="IMIX">     4</i>
     <i type="logical" name="MIXFIRST"> F  </i>
     <i type="int" name="MAXMIX">   -45</i>
     <i name="WC">    100.00000000</i>
     <i type="int" name="INIMIX">     1</i>
     <i type="int" name="MIXPRE">     1</i>
     <i type="int" name="MREMOVE">     5</i>
    </separator>
   </separator>
   <separator name="electronic dipolcorrection" >
    <i type="logical" name="LDIPOL"> F  </i>
    <i type="logical" name="LMONO"> F  </i>
    <i type="int" name="IDIPOL">     0</i>
    <i name="EPSILON">      1.00000000</i>
    <v name="DIPOL">   -100.00000000   -100.00000000   -100.00000000</v>
    <i name="EFIELD">      0.00000000</i>
   </separator>
  </separator>
  <separator name="grids" >
   <i type="int" name="NGX">   162</i>
   <i type="int" name="NGY">   162</i>
   <i type="int" name="NGZ">   150</i>
   <i type="int" name="NGXF">   250</i>
   <i type="int" name="NGYF">   250</i>
   <i type="int" name="NGZF">   224</i>
   <i type="logical" name="ADDGRID"> F  </i>
  </separator>
  <separator name="ionic" >
   <i type="int" name="NSW">     0</i>
   <i type="int" name="IBRION">    -1</i>
   <i type="int" name="MDALGO">     0</i>
   <i type="int" name="ISIF">     2</i>
   <i name="PSTRESS">      0.00000000</i>
   <i name="EDIFFG">     -0.01000000</i>
   <i type="int" name="NFREE">     0</i>
   <i name="POTIM">      0.30000000</i>
   <i name="SMASS">     -3.00000000</i>
   <i name="SCALEE">      1.00000000</i>
  </separator>
  <separator name="ionic md" >
   <i name="TEBEG">      0.00010000</i>
   <i name="TEEND">      0.00010000</i>
   <i type="int" name="NBLOCK">     1</i>
   <i type="int" name="KBLOCK">     1</i>
   <i type="int" name="NPACO">   256</i>
   <i name="APACO">     16.00000000</i>
  </separator>
  <separator name="symmetry" >
   <i type="int" name="ISYM">     2</i>
   <i name="SYMPREC">      0.00001000</i>
  </separator>
  <separator name="dos" >
   <i type="int" name="LORBIT">     0</i>
   <v name="RWIGS">     -1.00000000     -1.00000000     -1.00000000     -1.00000000</v>
   <i type="int" name="NEDOS">   301</i>
   <i name="EMIN">     10.00000000</i>
   <i name="EMAX">    -10.00000000</i>
   <i name="EFERMI">      0.00000000</i>
  </separator>
  <separator name="writing" >
   <i type="int" name="NWRITE">     0</i>
   <i type="logical" name="LWAVE"> F  </i>
   <i type="logical" name="LDOWNSAMPLE"> F  </i>
   <i type="logical" name="LCHARG"> F  </i>
   <i type="logical" name="LPARD"> F  </i>
   <i type="logical" name="LVTOT"> F  </i>
   <i type="logical" name="LVHAR"> F  </i>
   <i type="logical" name="LELF"> F  </i>
   <i type="logical" name="LOPTICS"> F  </i>
   <v name="STM">      0.00000000      0.00000000      0.00000000      0.00000000      0.00000000      0.00000000      0.00000000</v>
  </separator>
  <separator name="performance" >
   <i type="int" name="NPAR">    16</i>
   <i type="int" name="NSIM">     4</i>
   <i type="int" name="NBLK">    -1</i>
   <i type="logical" name="LPLANE"> T  </i>
   <i type="logical" name="LSCALAPACK"> T  </i>
   <i type="logical" name="LSCAAWARE"> F  </i>
   <i type="logical" name="LSCALU"> F  </i>
   <i type="logical" name="LASYNC"> F  </i>
   <i type="logical" name="LORBITALREAL"> F  </i>
  </separator>
  <separator name="miscellaneous" >
   <i type="int" name="IDIOT">     3</i>
   <i type="int" name="ISPECIAL">     0</i>
   <i type="logical" name="LMUSIC"> F  </i>
   <v name="POMASS">     16.00000000      1.00000000     12.01100000     14.00100000</v>
   <v name="DARWINR">      0.00000000      0.00000000      0.00000000      0.00000000</v>
   <v name="DARWINV">      1.00000000      1.00000000      1.00000000      1.00000000</v>
   <i type="logical" name="LCORR"> T  </i>
  </separator>
  <i type="logical" name="GGA_COMPAT"> T  </i>
  <i type="logical" name="LBERRY"> F  </i>
  <i type="int" name="ICORELEVEL">     0</i>
  <i type="logical" name="LDAU"> F  </i>
  <i type="int" name="I_CONSTRAINED_M">     0</i>
  <separator name="electronic exchange-correlation" >
   <i type="string" name="GGA">PE</i>
   <i type="int" name="VOSKOWN">     0</i>
   <i type="logical" name="LHFCALC"> F  </i>
   <i type="string" name="PRECFOCK"></i>
   <i type="logical" name="LSYMGRAD"> F  </i>
   <i type="logical" name="LHFONE"> F  </i>
   <i type="logical" name="LRHFCALC"> F  </i>
   <i type="logical" name="LTHOMAS"> F  </i>
   <i type="logical" name="LMODELHF"> F  </i>
   <i name="ENCUT4O">     -1.00000000</i>
   <i type="int" name="EXXOEP">     0</i>
   <i type="int" name="FOURORBIT">     0</i>
   <i name="AEXX">      0.00000000</i>
   <i name="HFALPHA">      0.00000000</i>
   <i name="MCALPHA">      0.00000000</i>
   <i name="ALDAX">      1.00000000</i>
   <i name="AGGAX">      1.00000000</i>
   <i name="ALDAC">      1.00000000</i>
   <i name="AGGAC">      1.00000000</i>
   <i type="int" name="NKREDX">     1</i>
   <i type="int" name="NKREDY">     1</i>
   <i type="int" name="NKREDZ">     1</i>
   <i type="logical" name="SHIFTRED"> F  </i>
   <i type="logical" name="ODDONLY"> F  </i>
   <i type="logical" name="EVENONLY"> F  </i>
   <i type="int" name="LMAXFOCK">     0</i>
   <i type="int" name="NMAXFOCKAE">     0</i>
   <i type="logical" name="LFOCKAEDFT"> F  </i>
   <i name="HFSCREEN">      0.00000000</i>
   <i name="HFSCREENC">      0.00000000</i>
   <i type="int" name="NBANDSGWLOW">     0</i>
  </separator>
  <separator name="vdW DFT" >
   <i type="logical" name="LUSE_VDW"> F  </i>
   <i name="Zab_VDW">     -0.84910000</i>
   <i name="PARAM1">      0.12340000</i>
   <i name="PARAM2">      1.00000000</i>
   <i name="PARAM3">      0.00000000</i>
  </separator>
  <separator name="model GW" >
   <i type="int" name="MODEL_GW">     0</i>
   <i name="MODEL_EPS0">     67.85556782</i>
   <i name="MODEL_ALPHA">      1.00000000</i>
  </separator>
  <separator name="linear response parameters" >
   <i type="logical" name="LEPSILON"> F  </i>
   <i type="logical" name="LRPA"> F  </i>
   <i type="logical" name="LNABLA"> F  </i>
   <i type="logical" name="LVEL"> F  </i>
   <i type="int" name="KINTER">     0</i>
   <i name="CSHIFT">      0.10000000</i>
   <i name="OMEGAMAX">     -1.00000000</i>
   <i name="DEG_THRESHOLD">      0.00200000</i>
   <i name="RTIME">     -0.10000000</i>
   <i name="WPLASMAI">      0.00000000</i>
   <v name="DFIELD">      0.00000000      0.00000000      0.00000000</v>
   <v name="WPLASMA">      0.00000000      0.00000000      0.00000000      0.00000000      0.00000000      0.00000000      0.00000000      0.00000000      0.00000000</v>
  </separator>
  <separator name="orbital magnetization" >
   <i type="logical" name="NUCIND"> F  </i>
   <v name="MAGPOS">      0.00000000      0.00000000      0.00000000</v>
   <i type="logical" name="LNICSALL"> T  </i>
   <i type="logical" name="ORBITALMAG"> F  </i>
   <i type="logical" name="LMAGBLOCH"> F  </i>
   <i type="logical" name="LCHIMAG"> F  </i>
   <i type="logical" name="LGAUGE"> T  </i>
   <i type="int" name="MAGATOM">     0</i>
   <v name="MAGDIPOL">      0.00000000      0.00000000      0.00000000</v>
   <v name="AVECCONST">      0.00000000      0.00000000      0.00000000</v>
  </separator>
  <separator name="response functions" >
   <i type="logical" name="LADDER"> F  </i>
   <i type="logical" name="LRPAFORCE"> F  </i>
   <i type="logical" name="LFXC"> F  </i>
   <i type="logical" name="LHARTREE"> T  </i>
   <i type="int" name="IBSE">     0</i>
   <v type="int" name="KPOINT">    -1     0     0     0</v>
   <i type="logical" name="LTCTE"> F  </i>
   <i type="logical" name="LTETE"> F  </i>
   <i type="logical" name="LTRIPLET"> F  </i>
   <i type="logical" name="LFXCEPS"> F  </i>
   <i type="logical" name="LFXHEG"> F  </i>
   <i type="int" name="NATURALO">     2</i>
   <i type="logical" name="L2ORDER"> F  </i>
   <i type="logical" name="LMP2LT"> F  </i>
   <i type="logical" name="LUSEW"> F  </i>
   <i name="ENCUTGW">     -2.00000000</i>
   <i name="ENCUTGWSOFT">     -2.00000000</i>
   <i name="ENCUTLF">     -1.00000000</i>
   <i type="int" name="LMAXMP2">    -1</i>
   <i name="SCISSOR">      0.00000000</i>
   <i type="int" name="NOMEGA">     0</i>
   <i type="int" name="NOMEGAR">     0</i>
   <i type="int" name="NBANDSGW">    -1</i>
   <i type="int" name="NBANDSO">    -1</i>
   <i type="int" name="NBANDSV">    -1</i>
   <i type="int" name="NELM">   200</i>
   <i type="int" name="NELMHF">     1</i>
   <i type="int" name="DIM">     3</i>
   <i type="int" name="ANTIRES">     0</i>
   <i name="OMEGAMAX">    -30.00000000</i>
   <i name="OMEGAMIN">    -30.00000000</i>
   <i name="OMEGATL">   -200.00000000</i>
   <i type="int" name="OMEGAGRID">   140</i>
   <i name="CSHIFT">     -0.10000000</i>
   <i type="logical" name="SELFENERGY"> F  </i>
   <i type="logical" name="LSPECTRAL"> F  </i>
   <i type="logical" name="LSPECTRALGW"> F  </i>
   <i type="logical" name="LSINGLES"> F  </i>
   <i type="logical" name="LFERMIGW"> F  </i>
   <i type="logical" name="ODDONLYGW"> F  </i>
   <i type="logical" name="EVENONLYGW"> F  </i>
   <i type="int" name="NKREDLFX">     1</i>
   <i type="int" name="NKREDLFY">     1</i>
   <i type="int" name="NKREDLFZ">     1</i>
   <i type="int" name="MAXMEM">  2800</i>
   <i type="int" name="TELESCOPE">     0</i>
   <i type="int" name="TAUPAR">     1</i>
   <i type="int" name="OMEGAPAR">    -1</i>
   <i name="LAMBDA">      1.00000000</i>
  </separator>
  <separator name="External order field" >
   <i name="OFIELD_KAPPA">      0.00000000</i>
   <v name="OFIELD_K">      0.00000000      0.00000000      0.00000000</v>
   <i name="OFIELD_Q6_NEAR">      0.00000000</i>
   <i name="OFIELD_Q6_FAR">      0.00000000</i>
   <i name="OFIELD_A">      0.00000000</i>
  </separator>
  <separator name="solvation model" >
   <i type="logical" name="LSOL"> F  </i>
  </separator>
 </parameters>
 <atominfo>
  <atoms>      75 </atoms>
  <types>       4 </types>
  <array name="atoms" >
   <dimension dim="1">ion</dimension>
   <field type="string">element</field>
   <field type="int">atomtype</field>
   <set>
    <rc><c>O </c><c>   1</c></rc>
    <rc><c>O </c><c>   1</c></rc>
    <rc><c>O </c><c>   1</c></rc>
    <rc><c>O </c><c>   1</c></rc>
    <rc><c>O </c><c>   1</c></rc>
    <rc><c>O </c><c>   1</c></rc>
    <rc><c>H </c><c>   2</c></rc>
    <rc><c>H </c><c>   2</c></rc>
    <rc><c>H </c><c>   2</c></rc>
    <rc><c>H </c><c>   2</c></rc>
    <rc><c>H </c><c>   2</c></rc>
    <rc><c>H </c><c>   2</c></rc>
    <rc><c>H </c><c>   2</c></rc>
    <rc><c>H </c><c>   2</c></rc>
    <rc><c>H </c><c>   2</c></rc>
    <rc><c>H </c><c>   2</c></rc>
    <rc><c>H </c><c>   2</c></rc>
    <rc><c>H </c><c>   2</c></rc>
    <rc><c>H </c><c>   2</c></rc>
    <rc><c>H </c><c>   2</c></rc>
    <rc><c>H </c><c>   2</c></rc>
    <rc><c>H </c><c>   2</c></rc>
    <rc><c>H </c><c>   2</c></rc>
    <rc><c>H </c><c>   2</c></rc>
    <rc><c>H </c><c>   2</c></rc>
    <rc><c>H </c><c>   2</c></rc>
    <rc><c>H </c><c>   2</c></rc>
    <rc><c>H </c><c>   2</c></rc>
    <rc><c>H </c><c>   2</c></rc>
    <rc><c>H </c><c>   2</c></rc>
    <rc><c>C </c><c>   3</c></rc>
    <rc><c>C </c><c>   3</c></rc>
    <rc><c>C </c><c>   3</c></rc>
    <rc><c>C </c><c>   3</c></rc>
    <rc><c>C </c><c>   3</c></rc>
    <rc><c>C </c><c>   3</c></rc>
    <rc><c>C </c><c>   3</c></rc>
    <rc><c>C </c><c>   3</c></rc>
    <rc><c>C </c><c>   3</c></rc>
    <rc><c>C </c><c>   3</c></rc>
    <rc><c>C </c><c>   3</c></rc>
    <rc><c>C </c><c>   3</c></rc>
    <rc><c>C </c><c>   3</c></rc>
    <rc><c>C </c><c>   3</c></rc>
    <rc><c>C </c><c>   3</c></rc>
    <rc><c>C </c><c>   3</c></rc>
    <rc><c>C </c><c>   3</c></rc>
    <rc><c>C </c><c>   3</c></rc>
    <rc><c>C </c><c>   3</c></rc>
    <rc><c>C </c><c>   3</c></rc>
    <rc><c>C </c><c>   3</c></rc>
    <rc><c>C </c><c>   3</c></rc>
    <rc><c>C </c><c>   3</c></rc>
    <rc><c>C </c><c>   3</c></rc>
    <rc><c>C </c><c>   3</c></rc>
    <rc><c>C </c><c>   3</c></rc>
    <rc><c>C </c><c>   3</c></rc>
    <rc><c>C </c><c>   3</c></rc>
    <rc><c>C </c><c>   3</c></rc>
    <rc><c>C </c><c>   3</c></rc>
    <rc><c>C </c><c>   3</c></rc>
    <rc><c>C </c><c>   3</c></rc>
    <rc><c>C </c><c>   3</c></rc>
    <rc><c>N </c><c>   4</c></rc>
    <rc><c>N </c><c>   4</c></rc>
    <rc><c>N </c><c>   4</c></rc>
    <rc><c>N </c><c>   4</c></rc>
    <rc><c>N </c><c>   4</c></rc>
    <rc><c>N </c><c>   4</c></rc>
    <rc><c>N </c><c>   4</c></rc>
    <rc><c>N </c><c>   4</c></rc>
    <rc><c>N </c><c>   4</c></rc>
    <rc><c>N </c><c>   4</c></rc>
    <rc><c>N </c><c>   4</c></rc>
    <rc><c>N </c><c>   4</c></rc>
   </set>
  </array>
  <array name="atomtypes" >
   <dimension dim="1">type</dimension>
   <field type="int">atomspertype</field>
   <field type="string">element</field>
   <field>mass</field>
   <field>valence</field>
   <field type="string">pseudopotential</field>
   <set>
    <rc><c>   6</c><c>O </c><c>     16.00000000</c><c>      6.00000000</c><c>  PAW_PBE O 08Apr2002                   </c></rc>
    <rc><c>  24</c><c>H </c><c>      1.00000000</c><c>      1.00000000</c><c>  PAW_PBE H 15Jun2001                   </c></rc>
    <rc><c>  33</c><c>C </c><c>     12.01100000</c><c>      4.00000000</c><c>  PAW_PBE C 08Apr2002                   </c></rc>
    <rc><c>  12</c><c>N </c><c>     14.00100000</c><c>      5.00000000</c><c>  PAW_PBE N 08Apr2002                   </c></rc>
   </set>
  </array>
 </atominfo>
 <structure name="initialpos" >
  <crystal>
   <varray name="basis" >
    <v>      22.16957903       0.01162457       0.00000000 </v>
    <v>     -11.07518319      19.12388837       0.00000000 </v>
    <v>       0.00000000       0.00000000      20.00000000 </v>
   </varray>
   <i name="volume">   8481.94597739 </i>
   <varray name="rec_basis" >
    <v>       0.04509316       0.02611472       0.00000000 </v>
    <v>      -0.00002741       0.05227475       0.00000000 </v>
    <v>       0.00000000       0.00000000       0.05000000 </v>
   </varray>
  </crystal>
  <varray name="positions" >
   <v>       0.69469961       0.50589828       0.52030816 </v>
   <v>       0.80901065       0.29659318       0.51725125 </v>
   <v>       0.48597379       0.18225049       0.51560248 </v>
   <v>       0.33970796       0.50019904       0.55051477 </v>
   <v>       0.15870713       0.64943842       0.55591472 </v>
   <v>       0.48908864       0.83239717       0.55385042 </v>
   <v>       0.54176145       0.30528522       0.49781458 </v>
   <v>       0.76233129       0.45084492       0.49928039 </v>
   <v>       0.68677462       0.22965758       0.49730808 </v>
   <v>       0.45816702       0.71380048       0.54396488 </v>
   <v>       0.25341134       0.53183353       0.54526492 </v>
   <v>       0.27697035       0.73719231       0.54668417 </v>
   <v>       0.64811493       0.57241792       0.54181233 </v>
   <v>       0.64811313       0.67401605       0.58862177 </v>
   <v>       0.59915249       0.70031739       0.53884436 </v>
   <v>       0.56624373       0.66045213       0.61758060 </v>
   <v>       0.48068850       0.64371864       0.53050254 </v>
   <v>       0.92139961       0.34263559       0.54109736 </v>
   <v>       0.02232700       0.34113654       0.58723230 </v>
   <v>       0.09736460       0.38980857       0.53706886 </v>
   <v>       0.09163444       0.42284085       0.61610870 </v>
   <v>       0.16144691       0.50957848       0.52725467 </v>
   <v>       0.41983839       0.06976369       0.53931043 </v>
   <v>       0.31768609       0.96853721       0.58593890 </v>
   <v>       0.29076586       0.89346360       0.53539359 </v>
   <v>       0.32965919       0.89879023       0.61423795 </v>
   <v>       0.34652015       0.82899563       0.52560885 </v>
   <v>       0.54272823       0.39310971       0.46889016 </v>
   <v>       0.84961966       0.45078448       0.47093940 </v>
   <v>       0.59978606       0.14232841       0.46986789 </v>
   <v>       0.73192022       0.34015636       0.49466484 </v>
   <v>       0.67482590       0.27186563       0.49419391 </v>
   <v>       0.60677679       0.26007564       0.49397700 </v>
   <v>       0.59581065       0.31730843       0.49448109 </v>
   <v>       0.72025209       0.39667367       0.49528655 </v>
   <v>       0.80264924       0.34709858       0.50097825 </v>
   <v>       0.54291361       0.18896915       0.49966736 </v>
   <v>       0.25697905       0.63307730       0.54469606 </v>
   <v>       0.30215394       0.70553884       0.54495192 </v>
   <v>       0.37430712       0.73364075       0.54398753 </v>
   <v>       0.40135783       0.68835370       0.54366174 </v>
   <v>       0.28496989       0.58881375       0.54431858 </v>
   <v>       0.18017887       0.60893624       0.54428924 </v>
   <v>       0.42708820       0.81070749       0.54275131 </v>
   <v>       0.59361297       0.55176733       0.52883626 </v>
   <v>       0.55934365       0.58861537       0.54082907 </v>
   <v>       0.48851030       0.55544047       0.52092926 </v>
   <v>       0.59505676       0.65938202       0.57319634 </v>
   <v>       0.95580290       0.39735324       0.52855133 </v>
   <v>       0.02691400       0.43093322       0.54022280 </v>
   <v>       0.06535554       0.50207540       0.52082903 </v>
   <v>       0.06117721       0.39425289       0.57184426 </v>
   <v>       0.43999881       0.03532077       0.52671207 </v>
   <v>       0.40239617       0.96399874       0.53838287 </v>
   <v>       0.43495126       0.92557397       0.51890306 </v>
   <v>       0.33158091       0.92955093       0.57017460 </v>
   <v>       0.65219243       0.38558510       0.49503756 </v>
   <v>       0.64503032       0.44939708       0.50195785 </v>
   <v>       0.35718094       0.61592135       0.54357578 </v>
   <v>       0.38089066       0.56271890       0.54201252 </v>
   <v>       0.55482381       0.48519964       0.49984848 </v>
   <v>       0.92881746       0.43711657       0.50046090 </v>
   <v>       0.50670282       0.06251560       0.49866010 </v>
   <v>       0.45147315       0.59082528       0.53034015 </v>
   <v>       0.13787359       0.53872278       0.52967328 </v>
   <v>       0.39919088       0.85290607       0.52808828 </v>
   <v>       0.45494723       0.49284706       0.49100938 </v>
   <v>       0.48774426       0.45738993       0.48127708 </v>
   <v>       0.58005736       0.43966206       0.48801202 </v>
   <v>       0.03699058       0.53659815       0.49186314 </v>
   <v>       0.96880991       0.50456944       0.48258577 </v>
   <v>       0.85825708       0.41268080       0.48896143 </v>
   <v>       0.49763567       0.95404695       0.48967658 </v>
   <v>       0.53394372       0.02250696       0.48053552 </v>
   <v>       0.55297441       0.13340616       0.48760898 </v>
  </varray>
 </structure>
 <calculation>
  <scstep>
   <time name="dav">  227.28  229.68</time>
   <time name="total">  227.51  229.91</time>
   <energy>
    <i name="alphaZ">     33.68310244 </i>
    <i name="ewald">  27991.94759942 </i>
    <i name="hartreedc"> -36985.94872681 </i>
    <i name="XCdc">    934.86946084 </i>
    <i name="pawpsdc">  23547.57177955 </i>
    <i name="pawaedc"> -23599.51578817 </i>
    <i name="eentropy">     -0.00000000 </i>
    <i name="bandstr">  -3369.63975593 </i>
    <i name="atom">  10924.12903335 </i>
    <i name="e_fr_energy">   -522.90329531 </i>
    <i name="e_wo_entrp">   -522.90329531 </i>
    <i name="e_0_energy">   -522.90329531 </i>
   </energy>
  </scstep>
  <scstep>
   <time name="dav">  261.67  264.35</time>
   <time name="total">  261.67  264.35</time>
   <energy>
    <i name="e_fr_energy">   -523.56645433 </i>
    <i name="e_wo_entrp">   -523.56645433 </i>
    <i name="e_0_energy">   -523.56645433 </i>
   </energy>
  </scstep>
  <scstep>
   <time name="dav">  292.55  295.56</time>
   <time name="total">  292.56  295.57</time>
   <energy>
    <i name="e_fr_energy">   -523.58395124 </i>
    <i name="e_wo_entrp">   -523.58395124 </i>
    <i name="e_0_energy">   -523.58395124 </i>
   </energy>
  </scstep>
  <scstep>
   <time name="dav">  258.75  261.50</time>
   <time name="total">  258.75  261.50</time>
   <energy>
    <i name="e_fr_energy">   -523.58418970 </i>
    <i name="e_wo_entrp">   -523.58418970 </i>
    <i name="e_0_energy">   -523.58418970 </i>
   </energy>
  </scstep>
  <scstep>
   <time name="dav">  257.54  260.30</time>
   <time name="total">  257.54  260.30</time>
   <energy>
    <i name="e_fr_energy">   -523.58420072 </i>
    <i name="e_wo_entrp">   -523.58420072 </i>
    <i name="e_0_energy">   -523.58420072 </i>
   </energy>
  </scstep>
  <scstep>
   <time name="dav">  206.92  209.16</time>
   <time name="total">  206.92  209.16</time>
   <energy>
    <i name="alphaZ">     33.68310244 </i>
    <i name="ewald">  27991.94759942 </i>
    <i name="hartreedc"> -36985.94872681 </i>
    <i name="XCdc">    934.86946084 </i>
    <i name="pawpsdc">  23547.57177955 </i>
    <i name="pawaedc"> -23599.51578817 </i>
    <i name="eentropy">     -0.00000000 </i>
    <i name="bandstr">  -3370.32066176 </i>
    <i name="atom">  10924.12903335 </i>
    <i name="e_fr_energy">   -523.58420114 </i>
    <i name="e_wo_entrp">   -523.58420114 </i>
    <i name="e_0_energy">   -523.58420114 </i>
   </energy>
  </scstep>
  <structure>
   <crystal>
    <varray name="basis" >
     <v>      22.16957903       0.01162457       0.00000000 </v>
     <v>     -11.07518319      19.12388837       0.00000000 </v>
     <v>       0.00000000       0.00000000      20.00000000 </v>
    </varray>
    <i name="volume">   8481.94597739 </i>
    <varray name="rec_basis" >
     <v>       0.04509316       0.02611472       0.00000000 </v>
     <v>      -0.00002741       0.05227475       0.00000000 </v>
     <v>       0.00000000       0.00000000       0.05000000 </v>
    </varray>
   </crystal>
   <varray name="positions" >
    <v>       0.69469961       0.50589828       0.52030816 </v>
    <v>       0.80901065       0.29659318       0.51725125 </v>
    <v>       0.48597379       0.18225049       0.51560248 </v>
    <v>       0.33970796       0.50019904       0.55051477 </v>
    <v>       0.15870713       0.64943842       0.55591472 </v>
    <v>       0.48908864       0.83239717       0.55385042 </v>
    <v>       0.54176145       0.30528522       0.49781458 </v>
    <v>       0.76233129       0.45084492       0.49928039 </v>
    <v>       0.68677462       0.22965758       0.49730808 </v>
    <v>       0.45816702       0.71380048       0.54396488 </v>
    <v>       0.25341134       0.53183353       0.54526492 </v>
    <v>       0.27697035       0.73719231       0.54668417 </v>
    <v>       0.64811493       0.57241792       0.54181233 </v>
    <v>       0.64811313       0.67401605       0.58862177 </v>
    <v>       0.59915249       0.70031739       0.53884436 </v>
    <v>       0.56624373       0.66045213       0.61758060 </v>
    <v>       0.48068850       0.64371864       0.53050254 </v>
    <v>       0.92139961       0.34263559       0.54109736 </v>
    <v>       0.02232700       0.34113654       0.58723230 </v>
    <v>       0.09736460       0.38980857       0.53706886 </v>
    <v>       0.09163444       0.42284085       0.61610870 </v>
    <v>       0.16144691       0.50957848       0.52725467 </v>
    <v>       0.41983839       0.06976369       0.53931043 </v>
    <v>       0.31768609       0.96853721       0.58593890 </v>
    <v>       0.29076586       0.89346360       0.53539359 </v>
    <v>       0.32965919       0.89879023       0.61423795 </v>
    <v>       0.34652015       0.82899563       0.52560885 </v>
    <v>       0.54272823       0.39310971       0.46889016 </v>
    <v>       0.84961966       0.45078448       0.47093940 </v>
    <v>       0.59978606       0.14232841       0.46986789 </v>
    <v>       0.73192022       0.34015636       0.49466484 </v>
    <v>       0.67482590       0.27186563       0.49419391 </v>
    <v>       0.60677679       0.26007564       0.49397700 </v>
    <v>       0.59581065       0.31730843       0.49448109 </v>
    <v>       0.72025209       0.39667367       0.49528655 </v>
    <v>       0.80264924       0.34709858       0.50097825 </v>
    <v>       0.54291361       0.18896915       0.49966736 </v>
    <v>       0.25697905       0.63307730       0.54469606 </v>
    <v>       0.30215394       0.70553884       0.54495192 </v>
    <v>       0.37430712       0.73364075       0.54398753 </v>
    <v>       0.40135783       0.68835370       0.54366174 </v>
    <v>       0.28496989       0.58881375       0.54431858 </v>
    <v>       0.18017887       0.60893624       0.54428924 </v>
    <v>       0.42708820       0.81070749       0.54275131 </v>
    <v>       0.59361297       0.55176733       0.52883626 </v>
    <v>       0.55934365       0.58861537       0.54082907 </v>
    <v>       0.48851030       0.55544047       0.52092926 </v>
    <v>       0.59505676       0.65938202       0.57319634 </v>
    <v>       0.95580290       0.39735324       0.52855133 </v>
    <v>       0.02691400       0.43093322       0.54022280 </v>
    <v>       0.06535554       0.50207540       0.52082903 </v>
    <v>       0.06117721       0.39425289       0.57184426 </v>
    <v>       0.43999881       0.03532077       0.52671207 </v>
    <v>       0.40239617       0.96399874       0.53838287 </v>
    <v>       0.43495126       0.92557397       0.51890306 </v>
    <v>       0.33158091       0.92955093       0.57017460 </v>
    <v>       0.65219243       0.38558510       0.49503756 </v>
    <v>       0.64503032       0.44939708       0.50195785 </v>
    <v>       0.35718094       0.61592135       0.54357578 </v>
    <v>       0.38089066       0.56271890       0.54201252 </v>
    <v>       0.55482381       0.48519964       0.49984848 </v>
    <v>       0.92881746       0.43711657       0.50046090 </v>
    <v>       0.50670282       0.06251560       0.49866010 </v>
    <v>       0.45147315       0.59082528       0.53034015 </v>
    <v>       0.13787359       0.53872278       0.52967328 </v>
    <v>       0.39919088       0.85290607       0.52808828 </v>
    <v>       0.45494723       0.49284706       0.49100938 </v>
    <v>       0.48774426       0.45738993       0.48127708 </v>
    <v>       0.58005736       0.43966206       0.48801202 </v>
    <v>       0.03699058       0.53659815       0.49186314 </v>
    <v>       0.96880991       0.50456944       0.48258577 </v>
    <v>       0.85825708       0.41268080       0.48896143 </v>
    <v>       0.49763567       0.95404695       0.48967658 </v>
    <v>       0.53394372       0.02250696       0.48053552 </v>
    <v>       0.55297441       0.13340616       0.48760898 </v>
   </varray>
  </structure>
  <varray name="forces" >
   <v>       0.00037418      -0.00153344      -0.00065327 </v>
   <v>      -0.00265633       0.00590666       0.00006148 </v>
   <v>       0.00290528       0.00259955      -0.00181868 </v>
   <v>      -0.00036832       0.00295382      -0.00127887 </v>
   <v>       0.00559228      -0.00299084      -0.00161776 </v>
   <v>      -0.00202758      -0.00330075      -0.00056190 </v>
   <v>       0.00341813       0.00317018       0.00126569 </v>
   <v>       0.00210959       0.00313324       0.00175651 </v>
   <v>      -0.00055016       0.00079873       0.00075327 </v>
   <v>      -0.00171860       0.00064669       0.00001681 </v>
   <v>       0.00073422       0.00004578      -0.00082553 </v>
   <v>      -0.00108765       0.00059788      -0.00003985 </v>
   <v>       0.00050452      -0.00004716       0.00045538 </v>
   <v>      -0.00226635       0.00185788      -0.00122608 </v>
   <v>      -0.00033599       0.00250661       0.00065402 </v>
   <v>       0.00151850       0.00189279      -0.00254373 </v>
   <v>       0.00103689      -0.00568329      -0.00009026 </v>
   <v>      -0.00060124       0.00015069       0.00180754 </v>
   <v>      -0.00123581      -0.00195126      -0.00090373 </v>
   <v>       0.00278856      -0.00213504      -0.00276427 </v>
   <v>      -0.00040193      -0.00037532      -0.00286856 </v>
   <v>       0.00216238       0.00082401      -0.00512582 </v>
   <v>       0.00009738      -0.00151898       0.00012363 </v>
   <v>      -0.00024459      -0.00022288      -0.00249684 </v>
   <v>      -0.00025504      -0.00025396      -0.00147575 </v>
   <v>      -0.00365783       0.00113929      -0.00286834 </v>
   <v>      -0.00832830      -0.00248474      -0.00068143 </v>
   <v>      -0.00033904      -0.00106154       0.00160437 </v>
   <v>       0.00130823       0.00093174       0.00571788 </v>
   <v>      -0.00317711      -0.00158719       0.00243658 </v>
   <v>      -0.00695868      -0.00148230       0.00389155 </v>
   <v>      -0.00007543      -0.00106310       0.00026184 </v>
   <v>      -0.00347104       0.00014755       0.00117274 </v>
   <v>      -0.00069385       0.00054344       0.00194563 </v>
   <v>       0.00284753      -0.00141608       0.00089516 </v>
   <v>       0.00574549      -0.00611949      -0.00022953 </v>
   <v>       0.00264709      -0.00069730       0.00292434 </v>
   <v>       0.00172257      -0.00080086       0.00029053 </v>
   <v>      -0.00499162      -0.00289292       0.00020208 </v>
   <v>       0.00409205      -0.00202095       0.00029785 </v>
   <v>      -0.00232312      -0.00289136       0.00019331 </v>
   <v>      -0.00443612      -0.00078889      -0.00016033 </v>
   <v>      -0.00374847      -0.00296426       0.00190765 </v>
   <v>       0.00198589       0.00548381      -0.00008822 </v>
   <v>      -0.00155073       0.00020722       0.00044128 </v>
   <v>       0.00384552      -0.00024451      -0.00001239 </v>
   <v>      -0.00047141      -0.00293432      -0.00078033 </v>
   <v>       0.00305781       0.00132827      -0.00236893 </v>
   <v>       0.00041034      -0.00487181       0.00075064 </v>
   <v>      -0.00116640       0.00090384      -0.00198678 </v>
   <v>       0.00292596      -0.00317975      -0.00028933 </v>
   <v>       0.00498052      -0.00156079       0.00051265 </v>
   <v>      -0.00102040       0.00423627      -0.00182021 </v>
   <v>       0.00036028      -0.00498852      -0.00167604 </v>
   <v>      -0.00142962       0.00203814       0.00135818 </v>
   <v>      -0.00068767      -0.00107182      -0.00080017 </v>
   <v>       0.00077137      -0.00130575       0.00109770 </v>
   <v>       0.00316221       0.00430711       0.00329423 </v>
   <v>       0.00461907       0.00229098       0.00076459 </v>
   <v>      -0.00327510      -0.00279993       0.00086275 </v>
   <v>       0.00143883       0.00333904       0.00242950 </v>
   <v>       0.00476801       0.00251058       0.00084850 </v>
   <v>      -0.00199646       0.00237811       0.00089004 </v>
   <v>      -0.00091472       0.00730377      -0.00057145 </v>
   <v>       0.00399887      -0.00388462      -0.00774541 </v>
   <v>       0.00442757      -0.00215818       0.00245798 </v>
   <v>       0.00244404       0.00198375       0.00015730 </v>
   <v>      -0.00269574       0.00383453       0.00064364 </v>
   <v>       0.00591910       0.00037832       0.00438984 </v>
   <v>      -0.00026108       0.00603797       0.00159815 </v>
   <v>      -0.00668489      -0.00182691      -0.00658987 </v>
   <v>      -0.00417640      -0.00102727      -0.00369122 </v>
   <v>      -0.00395082       0.00422434       0.00180357 </v>
   <v>       0.00136919       0.00046582       0.00106085 </v>
   <v>      -0.00585780      -0.00296031       0.00265362 </v>
  </varray>
  <varray name="stress" >
   <v>       0.16206921       0.00476797       0.00372326 </v>
   <v>       0.00476797       0.17043660      -0.01169484 </v>
   <v>       0.00372326      -0.01169484      -0.24220970 </v>
  </varray>
  <energy>
   <i name="e_fr_energy">   -525.07607487 </i>
   <i name="e_wo_entrp">   -525.07607487 </i>
   <i name="e_0_energy">     -0.00000000 </i>
  </energy>
  <time name="totalsc"> 1776.03 1795.40</time>
  <eigenvalues>
   <array>
    <dimension dim="1">band</dimension>
    <dimension dim="2">kpoint</dimension>
    <dimension dim="3">spin</dimension>
    <field>eigene</field>
    <field>occ</field>
    <set>
     <set comment="spin 1">
      <set comment="kpoint 1">
       <r>  -26.2877    1.0000 </r>
       <r>  -26.2751    1.0000 </r>
       <r>  -26.2711    1.0000 </r>
       <r>  -26.0916    1.0000 </r>
       <r>  -26.0772    1.0000 </r>
       <r>  -26.0732    1.0000 </r>
       <r>  -25.5359    1.0000 </r>
       <r>  -25.5305    1.0000 </r>
       <r>  -25.5284    1.0000 </r>
       <r>  -23.9061    1.0000 </r>
       <r>  -23.8989    1.0000 </r>
       <r>  -23.8949    1.0000 </r>
       <r>  -23.4032    1.0000 </r>
       <r>  -23.3937    1.0000 </r>
       <r>  -23.3920    1.0000 </r>
       <r>  -22.0308    1.0000 </r>
       <r>  -21.9402    1.0000 </r>
       <r>  -20.7146    1.0000 </r>
       <r>  -20.7112    1.0000 </r>
       <r>  -20.6639    1.0000 </r>
       <r>  -20.3198    1.0000 </r>
       <r>  -20.3179    1.0000 </r>
       <r>  -20.0025    1.0000 </r>
       <r>  -19.4832    1.0000 </r>
       <r>  -19.4831    1.0000 </r>
       <r>  -19.1396    1.0000 </r>
       <r>  -19.1385    1.0000 </r>
       <r>  -18.1226    1.0000 </r>
       <r>  -18.0955    1.0000 </r>
       <r>  -18.0889    1.0000 </r>
       <r>  -17.3333    1.0000 </r>
       <r>  -17.2539    1.0000 </r>
       <r>  -17.2470    1.0000 </r>
       <r>  -16.5254    1.0000 </r>
       <r>  -16.5209    1.0000 </r>
       <r>  -16.3529    1.0000 </r>
       <r>  -15.8606    1.0000 </r>
       <r>  -15.8553    1.0000 </r>
       <r>  -15.4763    1.0000 </r>
       <r>  -15.4734    1.0000 </r>
       <r>  -15.4544    1.0000 </r>
       <r>  -14.8730    1.0000 </r>
       <r>  -14.8679    1.0000 </r>
       <r>  -14.8657    1.0000 </r>
       <r>  -14.4418    1.0000 </r>
       <r>  -14.2044    1.0000 </r>
       <r>  -14.1987    1.0000 </r>
       <r>  -13.9808    1.0000 </r>
       <r>  -13.6030    1.0000 </r>
       <r>  -13.5960    1.0000 </r>
       <r>  -13.2721    1.0000 </r>
       <r>  -13.2628    1.0000 </r>
       <r>  -13.1311    1.0000 </r>
       <r>  -13.0823    1.0000 </r>
       <r>  -12.6237    1.0000 </r>
       <r>  -12.3304    1.0000 </r>
       <r>  -12.3201    1.0000 </r>
       <r>  -12.1715    1.0000 </r>
       <r>  -11.9764    1.0000 </r>
       <r>  -11.6885    1.0000 </r>
       <r>  -11.6101    1.0000 </r>
       <r>  -11.6040    1.0000 </r>
       <r>  -11.5190    1.0000 </r>
       <r>  -11.5113    1.0000 </r>
       <r>  -11.4322    1.0000 </r>
       <r>  -11.2805    1.0000 </r>
       <r>  -11.2689    1.0000 </r>
       <r>  -11.2315    1.0000 </r>
       <r>  -10.8896    1.0000 </r>
       <r>  -10.7545    1.0000 </r>
       <r>  -10.7472    1.0000 </r>
       <r>  -10.6436    1.0000 </r>
       <r>  -10.6081    1.0000 </r>
       <r>  -10.6070    1.0000 </r>
       <r>  -10.5172    1.0000 </r>
       <r>  -10.3602    1.0000 </r>
       <r>  -10.3507    1.0000 </r>
       <r>  -10.2000    1.0000 </r>
       <r>  -10.1702    1.0000 </r>
       <r>  -10.1683    1.0000 </r>
       <r>  -10.1187    1.0000 </r>
       <r>  -10.1119    1.0000 </r>
       <r>  -10.1047    1.0000 </r>
       <r>  -10.0260    1.0000 </r>
       <r>  -10.0100    1.0000 </r>
       <r>  -10.0083    1.0000 </r>
       <r>   -9.9143    1.0000 </r>
       <r>   -9.8833    1.0000 </r>
       <r>   -9.8821    1.0000 </r>
       <r>   -9.5204    1.0000 </r>
       <r>   -9.5146    1.0000 </r>
       <r>   -9.4983    1.0000 </r>
       <r>   -9.3434    1.0000 </r>
       <r>   -9.0679    1.0000 </r>
       <r>   -9.0644    1.0000 </r>
       <r>   -8.9887    1.0000 </r>
       <r>   -8.9867    1.0000 </r>
       <r>   -8.9219    1.0000 </r>
       <r>   -8.3957    1.0000 </r>
       <r>   -8.3811    1.0000 </r>
       <r>   -8.1255    1.0000 </r>
       <r>   -7.7643    1.0000 </r>
       <r>   -7.7613    1.0000 </r>
       <r>   -7.7505    1.0000 </r>
       <r>   -7.4453    1.0000 </r>
       <r>   -7.4322    1.0000 </r>
       <r>   -7.3929    1.0000 </r>
       <r>   -6.9892    1.0000 </r>
       <r>   -6.9872    1.0000 </r>
       <r>   -6.9105    1.0000 </r>
       <r>   -6.8835    1.0000 </r>
       <r>   -6.8821    1.0000 </r>
       <r>   -6.7548    1.0000 </r>
       <r>   -6.7497    1.0000 </r>
       <r>   -6.2967    1.0000 </r>
       <r>   -6.1269    1.0000 </r>
       <r>   -6.0865    1.0000 </r>
       <r>   -6.0824    1.0000 </r>
       <r>   -5.9375    1.0000 </r>
       <r>   -5.9287    1.0000 </r>
       <r>   -5.6399    1.0000 </r>
       <r>   -5.6015    1.0000 </r>
       <r>   -5.5899    1.0000 </r>
       <r>   -5.0734    1.0000 </r>
       <r>   -5.0492    1.0000 </r>
       <r>   -5.0480    1.0000 </r>
       <r>   -2.8083    0.0000 </r>
       <r>   -2.8074    0.0000 </r>
       <r>   -2.5389    0.0000 </r>
       <r>   -2.5309    0.0000 </r>
       <r>   -2.1631    0.0000 </r>
       <r>   -2.1240    0.0000 </r>
       <r>   -2.1216    0.0000 </r>
       <r>   -2.1135    0.0000 </r>
       <r>   -1.2667    0.0000 </r>
       <r>   -1.2105    0.0000 </r>
       <r>   -1.2027    0.0000 </r>
       <r>   -0.6108    0.0000 </r>
       <r>   -0.4144    0.0000 </r>
       <r>   -0.3304    0.0000 </r>
       <r>   -0.3290    0.0000 </r>
       <r>   -0.2806    0.0000 </r>
       <r>    0.1709    0.0000 </r>
       <r>    0.1747    0.0000 </r>
       <r>    0.2770    0.0000 </r>
       <r>    0.3709    0.0000 </r>
       <r>    0.4597    0.0000 </r>
       <r>    0.4647    0.0000 </r>
       <r>    0.5264    0.0000 </r>
       <r>    0.5340    0.0000 </r>
       <r>    0.5402    0.0000 </r>
       <r>    0.5662    0.0000 </r>
       <r>    0.6562    0.0000 </r>
       <r>    0.6603    0.0000 </r>
       <r>    0.6936    0.0000 </r>
       <r>    0.7001    0.0000 </r>
       <r>    0.7229    0.0000 </r>
       <r>    0.8153    0.0000 </r>
       <r>    0.8245    0.0000 </r>
       <r>    0.8352    0.0000 </r>
       <r>    0.9429    0.0000 </r>
       <r>    1.0036    0.0000 </r>
       <r>    1.0102    0.0000 </r>
       <r>    1.0139    0.0000 </r>
       <r>    1.0328    0.0000 </r>
       <r>    1.0353    0.0000 </r>
       <r>    1.1008    0.0000 </r>
       <r>    1.1084    0.0000 </r>
       <r>    1.1100    0.0000 </r>
       <r>    1.1211    0.0000 </r>
       <r>    1.1878    0.0000 </r>
       <r>    1.2749    0.0000 </r>
       <r>    1.2775    0.0000 </r>
       <r>    1.3571    0.0000 </r>
       <r>    1.3662    0.0000 </r>
       <r>    1.3671    0.0000 </r>
      </set>
      <set comment="kpoint 2">
       <r>  -26.2877    1.0000 </r>
       <r>  -26.2751    1.0000 </r>
       <r>  -26.2711    1.0000 </r>
       <r>  -26.0916    1.0000 </r>
       <r>  -26.0772    1.0000 </r>
       <r>  -26.0732    1.0000 </r>
       <r>  -25.5359    1.0000 </r>
       <r>  -25.5305    1.0000 </r>
       <r>  -25.5284    1.0000 </r>
       <r>  -23.9061    1.0000 </r>
       <r>  -23.8989    1.0000 </r>
       <r>  -23.8949    1.0000 </r>
       <r>  -23.4032    1.0000 </r>
       <r>  -23.3937    1.0000 </r>
       <r>  -23.3920    1.0000 </r>
       <r>  -22.0307    1.0000 </r>
       <r>  -21.9402    1.0000 </r>
       <r>  -20.7146    1.0000 </r>
       <r>  -20.7111    1.0000 </r>
       <r>  -20.6640    1.0000 </r>
       <r>  -20.3196    1.0000 </r>
       <r>  -20.3177    1.0000 </r>
       <r>  -20.0031    1.0000 </r>
       <r>  -19.4832    1.0000 </r>
       <r>  -19.4824    1.0000 </r>
       <r>  -19.1399    1.0000 </r>
       <r>  -19.1386    1.0000 </r>
       <r>  -18.1226    1.0000 </r>
       <r>  -18.0955    1.0000 </r>
       <r>  -18.0889    1.0000 </r>
       <r>  -17.3332    1.0000 </r>
       <r>  -17.2539    1.0000 </r>
       <r>  -17.2470    1.0000 </r>
       <r>  -16.5254    1.0000 </r>
       <r>  -16.5208    1.0000 </r>
       <r>  -16.3531    1.0000 </r>
       <r>  -15.8606    1.0000 </r>
       <r>  -15.8553    1.0000 </r>
       <r>  -15.4764    1.0000 </r>
       <r>  -15.4744    1.0000 </r>
       <r>  -15.4533    1.0000 </r>
       <r>  -14.8736    1.0000 </r>
       <r>  -14.8688    1.0000 </r>
       <r>  -14.8641    1.0000 </r>
       <r>  -14.4416    1.0000 </r>
       <r>  -14.2046    1.0000 </r>
       <r>  -14.1988    1.0000 </r>
       <r>  -13.9809    1.0000 </r>
       <r>  -13.6027    1.0000 </r>
       <r>  -13.5957    1.0000 </r>
       <r>  -13.2728    1.0000 </r>
       <r>  -13.2629    1.0000 </r>
       <r>  -13.1309    1.0000 </r>
       <r>  -13.0821    1.0000 </r>
       <r>  -12.6235    1.0000 </r>
       <r>  -12.3310    1.0000 </r>
       <r>  -12.3202    1.0000 </r>
       <r>  -12.1709    1.0000 </r>
       <r>  -11.9765    1.0000 </r>
       <r>  -11.6885    1.0000 </r>
       <r>  -11.6102    1.0000 </r>
       <r>  -11.6040    1.0000 </r>
       <r>  -11.5189    1.0000 </r>
       <r>  -11.5113    1.0000 </r>
       <r>  -11.4323    1.0000 </r>
       <r>  -11.2805    1.0000 </r>
       <r>  -11.2690    1.0000 </r>
       <r>  -11.2313    1.0000 </r>
       <r>  -10.8896    1.0000 </r>
       <r>  -10.7547    1.0000 </r>
       <r>  -10.7476    1.0000 </r>
       <r>  -10.6430    1.0000 </r>
       <r>  -10.6080    1.0000 </r>
       <r>  -10.6070    1.0000 </r>
       <r>  -10.5173    1.0000 </r>
       <r>  -10.3602    1.0000 </r>
       <r>  -10.3506    1.0000 </r>
       <r>  -10.2000    1.0000 </r>
       <r>  -10.1703    1.0000 </r>
       <r>  -10.1683    1.0000 </r>
       <r>  -10.1188    1.0000 </r>
       <r>  -10.1118    1.0000 </r>
       <r>  -10.1046    1.0000 </r>
       <r>  -10.0259    1.0000 </r>
       <r>  -10.0100    1.0000 </r>
       <r>  -10.0084    1.0000 </r>
       <r>   -9.9145    1.0000 </r>
       <r>   -9.8836    1.0000 </r>
       <r>   -9.8818    1.0000 </r>
       <r>   -9.5203    1.0000 </r>
       <r>   -9.5146    1.0000 </r>
       <r>   -9.4983    1.0000 </r>
       <r>   -9.3429    1.0000 </r>
       <r>   -9.0679    1.0000 </r>
       <r>   -9.0644    1.0000 </r>
       <r>   -8.9887    1.0000 </r>
       <r>   -8.9868    1.0000 </r>
       <r>   -8.9223    1.0000 </r>
       <r>   -8.3955    1.0000 </r>
       <r>   -8.3807    1.0000 </r>
       <r>   -8.1258    1.0000 </r>
       <r>   -7.7643    1.0000 </r>
       <r>   -7.7613    1.0000 </r>
       <r>   -7.7505    1.0000 </r>
       <r>   -7.4453    1.0000 </r>
       <r>   -7.4322    1.0000 </r>
       <r>   -7.3930    1.0000 </r>
       <r>   -6.9892    1.0000 </r>
       <r>   -6.9871    1.0000 </r>
       <r>   -6.9108    1.0000 </r>
       <r>   -6.8833    1.0000 </r>
       <r>   -6.8820    1.0000 </r>
       <r>   -6.7548    1.0000 </r>
       <r>   -6.7498    1.0000 </r>
       <r>   -6.2967    1.0000 </r>
       <r>   -6.1270    1.0000 </r>
       <r>   -6.0863    1.0000 </r>
       <r>   -6.0824    1.0000 </r>
       <r>   -5.9375    1.0000 </r>
       <r>   -5.9287    1.0000 </r>
       <r>   -5.6398    1.0000 </r>
       <r>   -5.6015    1.0000 </r>
       <r>   -5.5899    1.0000 </r>
       <r>   -5.0734    1.0000 </r>
       <r>   -5.0492    1.0000 </r>
       <r>   -5.0480    1.0000 </r>
       <r>   -2.8081    0.0000 </r>
       <r>   -2.8073    0.0000 </r>
       <r>   -2.5392    0.0000 </r>
       <r>   -2.5312    0.0000 </r>
       <r>   -2.1631    0.0000 </r>
       <r>   -2.1268    0.0000 </r>
       <r>   -2.1220    0.0000 </r>
       <r>   -2.1093    0.0000 </r>
       <r>   -1.2771    0.0000 </r>
       <r>   -1.2069    0.0000 </r>
       <r>   -1.1959    0.0000 </r>
       <r>   -0.6107    0.0000 </r>
       <r>   -0.4152    0.0000 </r>
       <r>   -0.3311    0.0000 </r>
       <r>   -0.3292    0.0000 </r>
       <r>   -0.2798    0.0000 </r>
       <r>    0.1711    0.0000 </r>
       <r>    0.1746    0.0000 </r>
       <r>    0.2772    0.0000 </r>
       <r>    0.3710    0.0000 </r>
       <r>    0.4600    0.0000 </r>
       <r>    0.4646    0.0000 </r>
       <r>    0.5214    0.0000 </r>
       <r>    0.5380    0.0000 </r>
       <r>    0.5410    0.0000 </r>
       <r>    0.5666    0.0000 </r>
       <r>    0.6549    0.0000 </r>
       <r>    0.6595    0.0000 </r>
       <r>    0.6944    0.0000 </r>
       <r>    0.7008    0.0000 </r>
       <r>    0.7230    0.0000 </r>
       <r>    0.8126    0.0000 </r>
       <r>    0.8276    0.0000 </r>
       <r>    0.8353    0.0000 </r>
       <r>    0.9429    0.0000 </r>
       <r>    0.9996    0.0000 </r>
       <r>    1.0086    0.0000 </r>
       <r>    1.0126    0.0000 </r>
       <r>    1.0341    0.0000 </r>
       <r>    1.0388    0.0000 </r>
       <r>    1.0977    0.0000 </r>
       <r>    1.1046    0.0000 </r>
       <r>    1.1163    0.0000 </r>
       <r>    1.1250    0.0000 </r>
       <r>    1.1885    0.0000 </r>
       <r>    1.2744    0.0000 </r>
       <r>    1.2775    0.0000 </r>
       <r>    1.3467    0.0000 </r>
       <r>    1.3654    0.0000 </r>
       <r>    1.3757    0.0000 </r>
      </set>
      <set comment="kpoint 3">
       <r>  -26.2877    1.0000 </r>
       <r>  -26.2751    1.0000 </r>
       <r>  -26.2711    1.0000 </r>
       <r>  -26.0916    1.0000 </r>
       <r>  -26.0772    1.0000 </r>
       <r>  -26.0732    1.0000 </r>
       <r>  -25.5359    1.0000 </r>
       <r>  -25.5305    1.0000 </r>
       <r>  -25.5284    1.0000 </r>
       <r>  -23.9061    1.0000 </r>
       <r>  -23.8989    1.0000 </r>
       <r>  -23.8949    1.0000 </r>
       <r>  -23.4032    1.0000 </r>
       <r>  -23.3937    1.0000 </r>
       <r>  -23.3920    1.0000 </r>
       <r>  -22.0307    1.0000 </r>
       <r>  -21.9403    1.0000 </r>
       <r>  -20.7146    1.0000 </r>
       <r>  -20.7111    1.0000 </r>
       <r>  -20.6643    1.0000 </r>
       <r>  -20.3193    1.0000 </r>
       <r>  -20.3169    1.0000 </r>
       <r>  -20.0051    1.0000 </r>
       <r>  -19.4832    1.0000 </r>
       <r>  -19.4802    1.0000 </r>
       <r>  -19.1411    1.0000 </r>
       <r>  -19.1388    1.0000 </r>
       <r>  -18.1224    1.0000 </r>
       <r>  -18.0955    1.0000 </r>
       <r>  -18.0890    1.0000 </r>
       <r>  -17.3328    1.0000 </r>
       <r>  -17.2540    1.0000 </r>
       <r>  -17.2472    1.0000 </r>
       <r>  -16.5253    1.0000 </r>
       <r>  -16.5204    1.0000 </r>
       <r>  -16.3537    1.0000 </r>
       <r>  -15.8605    1.0000 </r>
       <r>  -15.8553    1.0000 </r>
       <r>  -15.4771    1.0000 </r>
       <r>  -15.4762    1.0000 </r>
       <r>  -15.4507    1.0000 </r>
       <r>  -14.8752    1.0000 </r>
       <r>  -14.8697    1.0000 </r>
       <r>  -14.8615    1.0000 </r>
       <r>  -14.4411    1.0000 </r>
       <r>  -14.2055    1.0000 </r>
       <r>  -14.1990    1.0000 </r>
       <r>  -13.9813    1.0000 </r>
       <r>  -13.6019    1.0000 </r>
       <r>  -13.5949    1.0000 </r>
       <r>  -13.2748    1.0000 </r>
       <r>  -13.2631    1.0000 </r>
       <r>  -13.1300    1.0000 </r>
       <r>  -13.0815    1.0000 </r>
       <r>  -12.6228    1.0000 </r>
       <r>  -12.3327    1.0000 </r>
       <r>  -12.3207    1.0000 </r>
       <r>  -12.1689    1.0000 </r>
       <r>  -11.9770    1.0000 </r>
       <r>  -11.6884    1.0000 </r>
       <r>  -11.6102    1.0000 </r>
       <r>  -11.6040    1.0000 </r>
       <r>  -11.5189    1.0000 </r>
       <r>  -11.5113    1.0000 </r>
       <r>  -11.4326    1.0000 </r>
       <r>  -11.2806    1.0000 </r>
       <r>  -11.2692    1.0000 </r>
       <r>  -11.2305    1.0000 </r>
       <r>  -10.8897    1.0000 </r>
       <r>  -10.7558    1.0000 </r>
       <r>  -10.7485    1.0000 </r>
       <r>  -10.6413    1.0000 </r>
       <r>  -10.6078    1.0000 </r>
       <r>  -10.6068    1.0000 </r>
       <r>  -10.5175    1.0000 </r>
       <r>  -10.3601    1.0000 </r>
       <r>  -10.3504    1.0000 </r>
       <r>  -10.2001    1.0000 </r>
       <r>  -10.1708    1.0000 </r>
       <r>  -10.1683    1.0000 </r>
       <r>  -10.1188    1.0000 </r>
       <r>  -10.1117    1.0000 </r>
       <r>  -10.1043    1.0000 </r>
       <r>  -10.0256    1.0000 </r>
       <r>  -10.0100    1.0000 </r>
       <r>  -10.0086    1.0000 </r>
       <r>   -9.9153    1.0000 </r>
       <r>   -9.8842    1.0000 </r>
       <r>   -9.8814    1.0000 </r>
       <r>   -9.5203    1.0000 </r>
       <r>   -9.5148    1.0000 </r>
       <r>   -9.4983    1.0000 </r>
       <r>   -9.3413    1.0000 </r>
       <r>   -9.0680    1.0000 </r>
       <r>   -9.0643    1.0000 </r>
       <r>   -8.9888    1.0000 </r>
       <r>   -8.9871    1.0000 </r>
       <r>   -8.9237    1.0000 </r>
       <r>   -8.3950    1.0000 </r>
       <r>   -8.3796    1.0000 </r>
       <r>   -8.1267    1.0000 </r>
       <r>   -7.7642    1.0000 </r>
       <r>   -7.7613    1.0000 </r>
       <r>   -7.7505    1.0000 </r>
       <r>   -7.4452    1.0000 </r>
       <r>   -7.4320    1.0000 </r>
       <r>   -7.3931    1.0000 </r>
       <r>   -6.9891    1.0000 </r>
       <r>   -6.9870    1.0000 </r>
       <r>   -6.9120    1.0000 </r>
       <r>   -6.8829    1.0000 </r>
       <r>   -6.8813    1.0000 </r>
       <r>   -6.7548    1.0000 </r>
       <r>   -6.7499    1.0000 </r>
       <r>   -6.2967    1.0000 </r>
       <r>   -6.1274    1.0000 </r>
       <r>   -6.0860    1.0000 </r>
       <r>   -6.0822    1.0000 </r>
       <r>   -5.9376    1.0000 </r>
       <r>   -5.9288    1.0000 </r>
       <r>   -5.6396    1.0000 </r>
       <r>   -5.6017    1.0000 </r>
       <r>   -5.5899    1.0000 </r>
       <r>   -5.0733    1.0000 </r>
       <r>   -5.0492    1.0000 </r>
       <r>   -5.0480    1.0000 </r>
       <r>   -2.8079    0.0000 </r>
       <r>   -2.8069    0.0000 </r>
       <r>   -2.5403    0.0000 </r>
       <r>   -2.5319    0.0000 </r>
       <r>   -2.1631    0.0000 </r>
       <r>   -2.1316    0.0000 </r>
       <r>   -2.1221    0.0000 </r>
       <r>   -2.1014    0.0000 </r>
       <r>   -1.2985    0.0000 </r>
       <r>   -1.2059    0.0000 </r>
       <r>   -1.1754    0.0000 </r>
       <r>   -0.6106    0.0000 </r>
       <r>   -0.4177    0.0000 </r>
       <r>   -0.3333    0.0000 </r>
       <r>   -0.3293    0.0000 </r>
       <r>   -0.2774    0.0000 </r>
       <r>    0.1717    0.0000 </r>
       <r>    0.1742    0.0000 </r>
       <r>    0.2777    0.0000 </r>
       <r>    0.3713    0.0000 </r>
       <r>    0.4609    0.0000 </r>
       <r>    0.4643    0.0000 </r>
       <r>    0.5142    0.0000 </r>
       <r>    0.5389    0.0000 </r>
       <r>    0.5471    0.0000 </r>
       <r>    0.5678    0.0000 </r>
       <r>    0.6514    0.0000 </r>
       <r>    0.6574    0.0000 </r>
       <r>    0.6964    0.0000 </r>
       <r>    0.7029    0.0000 </r>
       <r>    0.7233    0.0000 </r>
       <r>    0.8081    0.0000 </r>
       <r>    0.8318    0.0000 </r>
       <r>    0.8367    0.0000 </r>
       <r>    0.9427    0.0000 </r>
       <r>    0.9907    0.0000 </r>
       <r>    1.0037    0.0000 </r>
       <r>    1.0102    0.0000 </r>
       <r>    1.0365    0.0000 </r>
       <r>    1.0465    0.0000 </r>
       <r>    1.0907    0.0000 </r>
       <r>    1.1054    0.0000 </r>
       <r>    1.1232    0.0000 </r>
       <r>    1.1344    0.0000 </r>
       <r>    1.1906    0.0000 </r>
       <r>    1.2729    0.0000 </r>
       <r>    1.2774    0.0000 </r>
       <r>    1.3320    0.0000 </r>
       <r>    1.3623    0.0000 </r>
       <r>    1.3861    0.0000 </r>
      </set>
      <set comment="kpoint 4">
       <r>  -26.2877    1.0000 </r>
       <r>  -26.2751    1.0000 </r>
       <r>  -26.2711    1.0000 </r>
       <r>  -26.0915    1.0000 </r>
       <r>  -26.0772    1.0000 </r>
       <r>  -26.0732    1.0000 </r>
       <r>  -25.5358    1.0000 </r>
       <r>  -25.5305    1.0000 </r>
       <r>  -25.5284    1.0000 </r>
       <r>  -23.9061    1.0000 </r>
       <r>  -23.8989    1.0000 </r>
       <r>  -23.8949    1.0000 </r>
       <r>  -23.4032    1.0000 </r>
       <r>  -23.3937    1.0000 </r>
       <r>  -23.3920    1.0000 </r>
       <r>  -22.0305    1.0000 </r>
       <r>  -21.9405    1.0000 </r>
       <r>  -20.7145    1.0000 </r>
       <r>  -20.7110    1.0000 </r>
       <r>  -20.6647    1.0000 </r>
       <r>  -20.3191    1.0000 </r>
       <r>  -20.3152    1.0000 </r>
       <r>  -20.0083    1.0000 </r>
       <r>  -19.4832    1.0000 </r>
       <r>  -19.4766    1.0000 </r>
       <r>  -19.1432    1.0000 </r>
       <r>  -19.1388    1.0000 </r>
       <r>  -18.1222    1.0000 </r>
       <r>  -18.0956    1.0000 </r>
       <r>  -18.0890    1.0000 </r>
       <r>  -17.3322    1.0000 </r>
       <r>  -17.2542    1.0000 </r>
       <r>  -17.2474    1.0000 </r>
       <r>  -16.5252    1.0000 </r>
       <r>  -16.5198    1.0000 </r>
       <r>  -16.3548    1.0000 </r>
       <r>  -15.8605    1.0000 </r>
       <r>  -15.8552    1.0000 </r>
       <r>  -15.4801    1.0000 </r>
       <r>  -15.4764    1.0000 </r>
       <r>  -15.4471    1.0000 </r>
       <r>  -14.8772    1.0000 </r>
       <r>  -14.8704    1.0000 </r>
       <r>  -14.8585    1.0000 </r>
       <r>  -14.4402    1.0000 </r>
       <r>  -14.2070    1.0000 </r>
       <r>  -14.1993    1.0000 </r>
       <r>  -13.9819    1.0000 </r>
       <r>  -13.6008    1.0000 </r>
       <r>  -13.5932    1.0000 </r>
       <r>  -13.2782    1.0000 </r>
       <r>  -13.2635    1.0000 </r>
       <r>  -13.1288    1.0000 </r>
       <r>  -13.0806    1.0000 </r>
       <r>  -12.6217    1.0000 </r>
       <r>  -12.3358    1.0000 </r>
       <r>  -12.3212    1.0000 </r>
       <r>  -12.1658    1.0000 </r>
       <r>  -11.9777    1.0000 </r>
       <r>  -11.6882    1.0000 </r>
       <r>  -11.6104    1.0000 </r>
       <r>  -11.6041    1.0000 </r>
       <r>  -11.5189    1.0000 </r>
       <r>  -11.5111    1.0000 </r>
       <r>  -11.4330    1.0000 </r>
       <r>  -11.2808    1.0000 </r>
       <r>  -11.2695    1.0000 </r>
       <r>  -11.2293    1.0000 </r>
       <r>  -10.8898    1.0000 </r>
       <r>  -10.7580    1.0000 </r>
       <r>  -10.7495    1.0000 </r>
       <r>  -10.6385    1.0000 </r>
       <r>  -10.6075    1.0000 </r>
       <r>  -10.6064    1.0000 </r>
       <r>  -10.5178    1.0000 </r>
       <r>  -10.3599    1.0000 </r>
       <r>  -10.3501    1.0000 </r>
       <r>  -10.2001    1.0000 </r>
       <r>  -10.1714    1.0000 </r>
       <r>  -10.1683    1.0000 </r>
       <r>  -10.1188    1.0000 </r>
       <r>  -10.1115    1.0000 </r>
       <r>  -10.1039    1.0000 </r>
       <r>  -10.0252    1.0000 </r>
       <r>  -10.0101    1.0000 </r>
       <r>  -10.0089    1.0000 </r>
       <r>   -9.9166    1.0000 </r>
       <r>   -9.8849    1.0000 </r>
       <r>   -9.8809    1.0000 </r>
       <r>   -9.5203    1.0000 </r>
       <r>   -9.5150    1.0000 </r>
       <r>   -9.4983    1.0000 </r>
       <r>   -9.3387    1.0000 </r>
       <r>   -9.0680    1.0000 </r>
       <r>   -9.0642    1.0000 </r>
       <r>   -8.9890    1.0000 </r>
       <r>   -8.9876    1.0000 </r>
       <r>   -8.9258    1.0000 </r>
       <r>   -8.3944    1.0000 </r>
       <r>   -8.3777    1.0000 </r>
       <r>   -8.1282    1.0000 </r>
       <r>   -7.7641    1.0000 </r>
       <r>   -7.7613    1.0000 </r>
       <r>   -7.7506    1.0000 </r>
       <r>   -7.4451    1.0000 </r>
       <r>   -7.4317    1.0000 </r>
       <r>   -7.3934    1.0000 </r>
       <r>   -6.9891    1.0000 </r>
       <r>   -6.9867    1.0000 </r>
       <r>   -6.9137    1.0000 </r>
       <r>   -6.8826    1.0000 </r>
       <r>   -6.8799    1.0000 </r>
       <r>   -6.7549    1.0000 </r>
       <r>   -6.7501    1.0000 </r>
       <r>   -6.2966    1.0000 </r>
       <r>   -6.1281    1.0000 </r>
       <r>   -6.0854    1.0000 </r>
       <r>   -6.0819    1.0000 </r>
       <r>   -5.9376    1.0000 </r>
       <r>   -5.9290    1.0000 </r>
       <r>   -5.6393    1.0000 </r>
       <r>   -5.6019    1.0000 </r>
       <r>   -5.5900    1.0000 </r>
       <r>   -5.0733    1.0000 </r>
       <r>   -5.0492    1.0000 </r>
       <r>   -5.0481    1.0000 </r>
       <r>   -2.8078    0.0000 </r>
       <r>   -2.8061    0.0000 </r>
       <r>   -2.5425    0.0000 </r>
       <r>   -2.5327    0.0000 </r>
       <r>   -2.1631    0.0000 </r>
       <r>   -2.1360    0.0000 </r>
       <r>   -2.1221    0.0000 </r>
       <r>   -2.0920    0.0000 </r>
       <r>   -1.3229    0.0000 </r>
       <r>   -1.2058    0.0000 </r>
       <r>   -1.1511    0.0000 </r>
       <r>   -0.6105    0.0000 </r>
       <r>   -0.4218    0.0000 </r>
       <r>   -0.3367    0.0000 </r>
       <r>   -0.3296    0.0000 </r>
       <r>   -0.2739    0.0000 </r>
       <r>    0.1727    0.0000 </r>
       <r>    0.1737    0.0000 </r>
       <r>    0.2785    0.0000 </r>
       <r>    0.3719    0.0000 </r>
       <r>    0.4620    0.0000 </r>
       <r>    0.4638    0.0000 </r>
       <r>    0.5074    0.0000 </r>
       <r>    0.5383    0.0000 </r>
       <r>    0.5544    0.0000 </r>
       <r>    0.5697    0.0000 </r>
       <r>    0.6463    0.0000 </r>
       <r>    0.6545    0.0000 </r>
       <r>    0.6988    0.0000 </r>
       <r>    0.7059    0.0000 </r>
       <r>    0.7239    0.0000 </r>
       <r>    0.8039    0.0000 </r>
       <r>    0.8323    0.0000 </r>
       <r>    0.8421    0.0000 </r>
       <r>    0.9424    0.0000 </r>
       <r>    0.9798    0.0000 </r>
       <r>    0.9971    0.0000 </r>
       <r>    1.0074    0.0000 </r>
       <r>    1.0383    0.0000 </r>
       <r>    1.0556    0.0000 </r>
       <r>    1.0841    0.0000 </r>
       <r>    1.1083    0.0000 </r>
       <r>    1.1314    0.0000 </r>
       <r>    1.1456    0.0000 </r>
       <r>    1.1943    0.0000 </r>
       <r>    1.2706    0.0000 </r>
       <r>    1.2771    0.0000 </r>
       <r>    1.3167    0.0000 </r>
       <r>    1.3577    0.0000 </r>
       <r>    1.3941    0.0000 </r>
      </set>
      <set comment="kpoint 5">
       <r>  -26.2877    1.0000 </r>
       <r>  -26.2751    1.0000 </r>
       <r>  -26.2711    1.0000 </r>
       <r>  -26.0915    1.0000 </r>
       <r>  -26.0772    1.0000 </r>
       <r>  -26.0733    1.0000 </r>
       <r>  -25.5358    1.0000 </r>
       <r>  -25.5305    1.0000 </r>
       <r>  -25.5284    1.0000 </r>
       <r>  -23.9061    1.0000 </r>
       <r>  -23.8988    1.0000 </r>
       <r>  -23.8950    1.0000 </r>
       <r>  -23.4032    1.0000 </r>
       <r>  -23.3937    1.0000 </r>
       <r>  -23.3920    1.0000 </r>
       <r>  -22.0303    1.0000 </r>
       <r>  -21.9407    1.0000 </r>
       <r>  -20.7144    1.0000 </r>
       <r>  -20.7109    1.0000 </r>
       <r>  -20.6652    1.0000 </r>
       <r>  -20.3190    1.0000 </r>
       <r>  -20.3127    1.0000 </r>
       <r>  -20.0127    1.0000 </r>
       <r>  -19.4832    1.0000 </r>
       <r>  -19.4717    1.0000 </r>
       <r>  -19.1461    1.0000 </r>
       <r>  -19.1388    1.0000 </r>
       <r>  -18.1220    1.0000 </r>
       <r>  -18.0956    1.0000 </r>
       <r>  -18.0891    1.0000 </r>
       <r>  -17.3315    1.0000 </r>
       <r>  -17.2545    1.0000 </r>
       <r>  -17.2477    1.0000 </r>
       <r>  -16.5250    1.0000 </r>
       <r>  -16.5188    1.0000 </r>
       <r>  -16.3563    1.0000 </r>
       <r>  -15.8605    1.0000 </r>
       <r>  -15.8552    1.0000 </r>
       <r>  -15.4834    1.0000 </r>
       <r>  -15.4766    1.0000 </r>
       <r>  -15.4432    1.0000 </r>
       <r>  -14.8793    1.0000 </r>
       <r>  -14.8710    1.0000 </r>
       <r>  -14.8553    1.0000 </r>
       <r>  -14.4390    1.0000 </r>
       <r>  -14.2090    1.0000 </r>
       <r>  -14.1997    1.0000 </r>
       <r>  -13.9827    1.0000 </r>
       <r>  -13.5998    1.0000 </r>
       <r>  -13.5906    1.0000 </r>
       <r>  -13.2827    1.0000 </r>
       <r>  -13.2638    1.0000 </r>
       <r>  -13.1271    1.0000 </r>
       <r>  -13.0793    1.0000 </r>
       <r>  -12.6202    1.0000 </r>
       <r>  -12.3400    1.0000 </r>
       <r>  -12.3216    1.0000 </r>
       <r>  -12.1617    1.0000 </r>
       <r>  -11.9787    1.0000 </r>
       <r>  -11.6879    1.0000 </r>
       <r>  -11.6105    1.0000 </r>
       <r>  -11.6043    1.0000 </r>
       <r>  -11.5188    1.0000 </r>
       <r>  -11.5110    1.0000 </r>
       <r>  -11.4337    1.0000 </r>
       <r>  -11.2810    1.0000 </r>
       <r>  -11.2699    1.0000 </r>
       <r>  -11.2278    1.0000 </r>
       <r>  -10.8900    1.0000 </r>
       <r>  -10.7615    1.0000 </r>
       <r>  -10.7500    1.0000 </r>
       <r>  -10.6349    1.0000 </r>
       <r>  -10.6072    1.0000 </r>
       <r>  -10.6056    1.0000 </r>
       <r>  -10.5183    1.0000 </r>
       <r>  -10.3598    1.0000 </r>
       <r>  -10.3497    1.0000 </r>
       <r>  -10.2002    1.0000 </r>
       <r>  -10.1724    1.0000 </r>
       <r>  -10.1683    1.0000 </r>
       <r>  -10.1188    1.0000 </r>
       <r>  -10.1111    1.0000 </r>
[...]
       <r>   -27.2668     0.0000     0.0000 </r>
       <r>   -27.1652     0.0000     0.0000 </r>
       <r>   -27.0636     0.0000     0.0000 </r>
       <r>   -26.9620     0.0000     0.0000 </r>
       <r>   -26.8604     0.0000     0.0000 </r>
       <r>   -26.7588     0.0000     0.0000 </r>
       <r>   -26.6572     0.0000     0.0000 </r>
       <r>   -26.5556     0.0000     0.0000 </r>
       <r>   -26.4540     0.0000     0.0000 </r>
       <r>   -26.3524     0.0000     0.0000 </r>
       <r>   -26.2508    59.0078     5.9957 </r>
       <r>   -26.1492     0.0000     6.0000 </r>
       <r>   -26.0475    59.0480    11.9997 </r>
       <r>   -25.9459     0.0000    12.0000 </r>
       <r>   -25.8443     0.0000    12.0000 </r>
       <r>   -25.7427     0.0000    12.0000 </r>
       <r>   -25.6411     0.0000    12.0000 </r>
       <r>   -25.5395     8.9827    12.9127 </r>
       <r>   -25.4379     0.0000    18.0000 </r>
       <r>   -25.3363     0.0000    18.0000 </r>
       <r>   -25.2347     0.0000    18.0000 </r>
       <r>   -25.1331     0.0000    18.0000 </r>
       <r>   -25.0315     0.0000    18.0000 </r>
       <r>   -24.9299     0.0000    18.0000 </r>
       <r>   -24.8282     0.0000    18.0000 </r>
       <r>   -24.7266     0.0000    18.0000 </r>
       <r>   -24.6250     0.0000    18.0000 </r>
       <r>   -24.5234     0.0000    18.0000 </r>
       <r>   -24.4218     0.0000    18.0000 </r>
       <r>   -24.3202     0.0000    18.0000 </r>
       <r>   -24.2186     0.0000    18.0000 </r>
       <r>   -24.1170     0.0000    18.0000 </r>
       <r>   -24.0154     0.0000    18.0000 </r>
       <r>   -23.9138     3.0260    18.3075 </r>
       <r>   -23.8122     0.0000    24.0000 </r>
       <r>   -23.7106     0.0000    24.0000 </r>
       <r>   -23.6090     0.0000    24.0000 </r>
       <r>   -23.5073     0.0000    24.0000 </r>
       <r>   -23.4057     8.3918    24.8527 </r>
       <r>   -23.3041     0.0000    30.0000 </r>
       <r>   -23.2025     0.0000    30.0000 </r>
       <r>   -23.1009     0.0000    30.0000 </r>
       <r>   -22.9993     0.0000    30.0000 </r>
       <r>   -22.8977     0.0000    30.0000 </r>
       <r>   -22.7961     0.0000    30.0000 </r>
       <r>   -22.6945     0.0000    30.0000 </r>
       <r>   -22.5929     0.0000    30.0000 </r>
       <r>   -22.4913     0.0000    30.0000 </r>
       <r>   -22.3897     0.0000    30.0000 </r>
       <r>   -22.2881     0.0000    30.0000 </r>
       <r>   -22.1864     0.0000    30.0000 </r>
       <r>   -22.0848     0.0000    30.0000 </r>
       <r>   -21.9832    19.6835    32.0000 </r>
       <r>   -21.8816    19.6835    34.0000 </r>
       <r>   -21.7800     0.0000    34.0000 </r>
       <r>   -21.6784     0.0000    34.0000 </r>
       <r>   -21.5768     0.0000    34.0000 </r>
       <r>   -21.4752     0.0000    34.0000 </r>
       <r>   -21.3736     0.0000    34.0000 </r>
       <r>   -21.2720     0.0000    34.0000 </r>
       <r>   -21.1704     0.0000    34.0000 </r>
       <r>   -21.0688     0.0000    34.0000 </r>
       <r>   -20.9671     0.0000    34.0000 </r>
       <r>   -20.8655     0.0000    34.0000 </r>
       <r>   -20.7639     0.0000    34.0000 </r>
       <r>   -20.6623    56.7928    39.7706 </r>
       <r>   -20.5607     0.0000    40.0000 </r>
       <r>   -20.4591     0.0000    40.0000 </r>
       <r>   -20.3575     0.0000    40.0000 </r>
       <r>   -20.2559    28.7726    42.9235 </r>
       <r>   -20.1543     5.6562    44.0081 </r>
       <r>   -20.0527    10.2846    45.3784 </r>
       <r>   -19.9511     4.2647    46.0000 </r>
       <r>   -19.8495     0.0000    46.0000 </r>
       <r>   -19.7479     0.0000    46.0000 </r>
       <r>   -19.6462     0.0000    46.0000 </r>
       <r>   -19.5446     0.0000    46.0000 </r>
       <r>   -19.4430    24.7743    48.5173 </r>
       <r>   -19.3414     7.2097    49.3992 </r>
       <r>   -19.2398     9.2562    50.6739 </r>
       <r>   -19.1382    19.2145    52.9857 </r>
       <r>   -19.0366     0.0000    54.0000 </r>
       <r>   -18.9350     0.0000    54.0000 </r>
       <r>   -18.8334     0.0000    54.0000 </r>
       <r>   -18.7318     0.0000    54.0000 </r>
       <r>   -18.6302     0.0000    54.0000 </r>
       <r>   -18.5286     0.0000    54.0000 </r>
       <r>   -18.4269     0.0000    54.0000 </r>
       <r>   -18.3253     0.0000    54.0000 </r>
       <r>   -18.2237     0.0000    54.0000 </r>
       <r>   -18.1221     5.5395    54.5629 </r>
       <r>   -18.0205    39.3626    60.0000 </r>
       <r>   -17.9189     0.0000    60.0000 </r>
       <r>   -17.8173     0.0000    60.0000 </r>
       <r>   -17.7157     0.0000    60.0000 </r>
       <r>   -17.6141     0.0000    60.0000 </r>
       <r>   -17.5125     0.0000    60.0000 </r>
       <r>   -17.4109     0.0000    60.0000 </r>
       <r>   -17.3093    14.9930    61.5234 </r>
       <r>   -17.2077    39.3670    66.0000 </r>
       <r>   -17.1060     0.0000    66.0000 </r>
       <r>   -17.0044     0.0000    66.0000 </r>
       <r>   -16.9028     0.0000    66.0000 </r>
       <r>   -16.8012     0.0000    66.0000 </r>
       <r>   -16.6996     0.0000    66.0000 </r>
       <r>   -16.5980     0.0000    66.0000 </r>
       <r>   -16.4964    30.9979    69.1496 </r>
       <r>   -16.3948     4.8534    70.4931 </r>
       <r>   -16.2932     6.5608    72.0000 </r>
       <r>   -16.1916     0.0000    72.0000 </r>
       <r>   -16.0900     0.0000    72.0000 </r>
       <r>   -15.9884     0.0000    72.0000 </r>
       <r>   -15.8867     0.0020    72.0002 </r>
       <r>   -15.7851    39.3650    76.0000 </r>
       <r>   -15.6835     0.0000    76.0000 </r>
       <r>   -15.5819     0.0000    76.0000 </r>
       <r>   -15.4803    25.2836    78.5690 </r>
       <r>   -15.3787    19.6690    81.9985 </r>
       <r>   -15.2771     0.0000    82.0000 </r>
       <r>   -15.1755     0.0000    82.0000 </r>
       <r>   -15.0739     0.0000    82.0000 </r>
       <r>   -14.9723     0.0000    82.0000 </r>
       <r>   -14.8707    28.6421    84.9103 </r>
       <r>   -14.7691    15.7463    88.0000 </r>
       <r>   -14.6675     0.0000    88.0000 </r>
       <r>   -14.5658     0.0000    88.0000 </r>
       <r>   -14.4642     0.0016    88.0002 </r>
       <r>   -14.3626    19.6819    90.0000 </r>
       <r>   -14.2610     0.3660    90.0372 </r>
       <r>   -14.1594    27.8847    94.0000 </r>
       <r>   -14.0578     0.0000    94.0000 </r>
       <r>   -13.9562    19.6829    95.9999 </r>
       <r>   -13.8546     0.0000    96.0000 </r>
       <r>   -13.7530     0.0000    96.0000 </r>
       <r>   -13.6514     0.0000    96.0000 </r>
       <r>   -13.5498    26.6252    98.7053 </r>
       <r>   -13.4482    11.1537   100.0000 </r>
       <r>   -13.3466    11.8451   101.2036 </r>
       <r>   -13.2449    25.8901   103.9973 </r>
       <r>   -13.1433     0.0933   104.0095 </r>
       <r>   -13.0417    34.3986   107.9286 </r>
       <r>   -12.9401     0.0000   108.0000 </r>
       <r>   -12.8385     0.0000   108.0000 </r>
       <r>   -12.7369     0.0000   108.0000 </r>
       <r>   -12.6353     0.1201   108.0122 </r>
       <r>   -12.5337    15.4179   110.0000 </r>
       <r>   -12.4321     2.1494   110.2184 </r>
       <r>   -12.3305    11.0358   112.1880 </r>
       <r>   -12.2289     0.0000   114.0000 </r>
       <r>   -12.1273     6.4108   114.6514 </r>
       <r>   -12.0256    11.6165   116.0470 </r>
       <r>   -11.9240     9.8410   118.0000 </r>
       <r>   -11.8224     0.0000   118.0000 </r>
       <r>   -11.7208     0.0000   118.0000 </r>
       <r>   -11.6192    24.4421   120.4835 </r>
       <r>   -11.5176    12.3033   125.2501 </r>
       <r>   -11.4160    19.6489   129.9965 </r>
       <r>   -11.3144     0.0001   130.0000 </r>
       <r>   -11.2128    47.3224   134.8083 </r>
       <r>   -11.1112     0.0000   136.0000 </r>
       <r>   -11.0096     0.0000   136.0000 </r>
       <r>   -10.9080     0.0724   136.0074 </r>
       <r>   -10.8064    16.3754   139.1974 </r>
       <r>   -10.7047    25.2603   142.0000 </r>
       <r>   -10.6031    26.2839   144.6707 </r>
       <r>   -10.5015    29.8023   149.9949 </r>
       <r>   -10.3999     0.0000   150.0000 </r>
       <r>   -10.2983    39.3670   154.0000 </r>
       <r>   -10.1967    16.5179   155.6783 </r>
       <r>   -10.0951    70.1538   164.6951 </r>
       <r>    -9.9935    57.8878   171.8819 </r>
       <r>    -9.8919    27.4061   174.7847 </r>
       <r>    -9.7903     0.0000   178.0000 </r>
       <r>    -9.6887     0.0000   178.0000 </r>
       <r>    -9.5871     0.0000   178.0000 </r>
       <r>    -9.4854    58.7823   183.9727 </r>
       <r>    -9.3838     0.0000   184.0000 </r>
       <r>    -9.2822     7.7261   184.7850 </r>
       <r>    -9.1806    10.1695   186.0000 </r>
       <r>    -9.0790    10.4828   187.0651 </r>
       <r>    -8.9774    39.1210   193.9750 </r>
       <r>    -8.8758     7.2168   196.0000 </r>
       <r>    -8.7742     0.0000   196.0000 </r>
       <r>    -8.6726     0.0000   196.0000 </r>
       <r>    -8.5710     0.0000   196.0000 </r>
       <r>    -8.4694     0.0000   196.0000 </r>
       <r>    -8.3678    23.2046   198.3578 </r>
       <r>    -8.2662    12.9349   199.9143 </r>
       <r>    -8.1645    12.1080   201.2303 </r>
       <r>    -8.0629     4.9207   202.0000 </r>
       <r>    -7.9613     0.0000   202.0000 </r>
       <r>    -7.8597     0.0000   202.0000 </r>
       <r>    -7.7581    31.9616   205.2476 </r>
       <r>    -7.6565     0.0000   208.0000 </r>
       <r>    -7.5549     0.0000   208.0000 </r>
       <r>    -7.4533     1.6629   208.1690 </r>
       <r>    -7.3517    37.0687   214.0000 </r>
       <r>    -7.2501     0.0000   214.0000 </r>
       <r>    -7.1485     0.0000   214.0000 </r>
       <r>    -7.0469     0.0000   214.0000 </r>
       <r>    -6.9453    48.1882   218.8963 </r>
       <r>    -6.8436    43.0387   223.9065 </r>
       <r>    -6.7420    37.6618   227.8267 </r>
       <r>    -6.6404     0.0000   228.0000 </r>
       <r>    -6.5388     0.0000   228.0000 </r>
       <r>    -6.4372     0.0000   228.0000 </r>
       <r>    -6.3356     0.0000   228.0000 </r>
       <r>    -6.2340    19.6835   230.0000 </r>
       <r>    -6.1324    14.5687   231.4803 </r>
       <r>    -6.0308    39.3670   236.0000 </r>
       <r>    -5.9292    30.6851   239.1179 </r>
       <r>    -5.8276     0.0000   240.0000 </r>
       <r>    -5.7260     0.0000   240.0000 </r>
       <r>    -5.6243    14.8997   241.5139 </r>
       <r>    -5.5227    23.2893   246.0000 </r>
       <r>    -5.4211     0.0000   246.0000 </r>
       <r>    -5.3195     0.0000   246.0000 </r>
       <r>    -5.2179     0.0000   246.0000 </r>
       <r>    -5.1163     0.0000   246.0000 </r>
       <r>    -5.0147    59.0505   252.0000 </r>
       <r>    -4.9131     0.0000   252.0000 </r>
       <r>    -4.8115     0.0000   252.0000 </r>
       <r>    -4.7099     0.0000   252.0000 </r>
       <r>    -4.6083     0.0000   252.0000 </r>
       <r>    -4.5067     0.0000   252.0000 </r>
       <r>    -4.4051     0.0000   252.0000 </r>
       <r>    -4.3034     0.0000   252.0000 </r>
       <r>    -4.2018     0.0000   252.0000 </r>
       <r>    -4.1002     0.0000   252.0000 </r>
       <r>    -3.9986     0.0000   252.0000 </r>
       <r>    -3.8970     0.0000   252.0000 </r>
       <r>    -3.7954     0.0000   252.0000 </r>
       <r>    -3.6938     0.0000   252.0000 </r>
       <r>    -3.5922     0.0000   252.0000 </r>
       <r>    -3.4906     0.0000   252.0000 </r>
       <r>    -3.3890     0.0000   252.0000 </r>
       <r>    -3.2874     0.0000   252.0000 </r>
       <r>    -3.1858     0.0000   252.0000 </r>
       <r>    -3.0841     0.0000   252.0000 </r>
       <r>    -2.9825     0.0000   252.0000 </r>
       <r>    -2.8809     0.0000   252.0000 </r>
       <r>    -2.7793    28.7887   254.9252 </r>
       <r>    -2.6777     0.0000   256.0000 </r>
       <r>    -2.5761    13.6335   257.3853 </r>
       <r>    -2.4745    23.6201   260.0000 </r>
       <r>    -2.3729     0.0000   260.0000 </r>
       <r>    -2.2713     0.0000   260.0000 </r>
       <r>    -2.1697     3.9225   260.3986 </r>
       <r>    -2.0681    27.7275   266.3507 </r>
       <r>    -1.9665     3.3858   266.7774 </r>
       <r>    -1.8649     7.3243   267.6109 </r>
       <r>    -1.7632     0.6555   268.0000 </r>
       <r>    -1.6616     4.7871   268.4864 </r>
       <r>    -1.5600     3.7687   269.1830 </r>
       <r>    -1.4584     2.0752   269.4442 </r>
       <r>    -1.3568     1.9611   269.6993 </r>
       <r>    -1.2552     2.2615   269.9965 </r>
       <r>    -1.1536    21.7798   272.2130 </r>
       <r>    -1.0520     1.8998   272.4597 </r>
       <r>    -0.9504     2.1141   272.7148 </r>
       <r>    -0.8488     2.4405   273.0147 </r>
       <r>    -0.7472     7.0524   273.8500 </r>
       <r>    -0.6456     6.3881   274.6491 </r>
       <r>    -0.5440    18.7036   276.9671 </r>
       <r>    -0.4423     4.5900   277.5997 </r>
       <r>    -0.3407    23.3241   280.1699 </r>
       <r>    -0.2391     6.7633   282.6872 </r>
       <r>    -0.1375     5.5754   284.0000 </r>
       <r>    -0.0359     0.0000   284.0000 </r>
       <r>     0.0657     0.0000   284.0000 </r>
       <r>     0.1673    11.6200   285.1807 </r>
       <r>     0.2689    13.4850   288.0369 </r>
       <r>     0.3705    19.8663   290.6186 </r>
       <r>     0.4721    27.8017   295.7582 </r>
       <r>     0.5737    44.1802   301.4226 </r>
       <r>     0.6753    45.9409   307.6680 </r>
       <r>     0.7770    53.6988   313.9564 </r>
       <r>     0.8786    54.7336   321.1281 </r>
       <r>     0.9802    37.8275   325.7770 </r>
       <r>     1.0818    44.6796   331.7400 </r>
       <r>     1.1834    47.6722   337.9774 </r>
       <r>     1.2850    48.4618   343.6575 </r>
       <r>     1.3866    48.4193   350.3532 </r>
       <r>     1.4882     2.6242   352.0000 </r>
       <r>     1.5898     0.0000   352.0000 </r>
       <r>     1.6914     0.0000   352.0000 </r>
       <r>     1.7930     0.0000   352.0000 </r>
       <r>     1.8946     0.0000   352.0000 </r>
       <r>     1.9962     0.0000   352.0000 </r>
       <r>     2.0979     0.0000   352.0000 </r>
       <r>     2.1995     0.0000   352.0000 </r>
       <r>     2.3011     0.0000   352.0000 </r>
       <r>     2.4027     0.0000   352.0000 </r>
       <r>     2.5043     0.0000   352.0000 </r>
       <r>     2.6059     0.0000   352.0000 </r>
       <r>     2.7075     0.0000   352.0000 </r>
       <r>     2.8091     0.0000   352.0000 </r>
      </set>
     </set>
    </array>
   </total>
  </dos>
 </calculation>
 <structure name="finalpos" >
  <crystal>
   <varray name="basis" >
    <v>      22.16957903       0.01162457       0.00000000 </v>
    <v>     -11.07518319      19.12388837       0.00000000 </v>
    <v>       0.00000000       0.00000000      20.00000000 </v>
   </varray>
   <i name="volume">   8481.94597739 </i>
   <varray name="rec_basis" >
    <v>       0.04509316       0.02611472       0.00000000 </v>
    <v>      -0.00002741       0.05227475       0.00000000 </v>
    <v>       0.00000000       0.00000000       0.05000000 </v>
   </varray>
  </crystal>
  <varray name="positions" >
   <v>       0.69469961       0.50589828       0.52030816 </v>
   <v>       0.80901065       0.29659318       0.51725125 </v>
   <v>       0.48597379       0.18225049       0.51560248 </v>
   <v>       0.33970796       0.50019904       0.55051477 </v>
   <v>       0.15870713       0.64943842       0.55591472 </v>
   <v>       0.48908864       0.83239717       0.55385042 </v>
   <v>       0.54176145       0.30528522       0.49781458 </v>
   <v>       0.76233129       0.45084492       0.49928039 </v>
   <v>       0.68677462       0.22965758       0.49730808 </v>
   <v>       0.45816702       0.71380048       0.54396488 </v>
   <v>       0.25341134       0.53183353       0.54526492 </v>
   <v>       0.27697035       0.73719231       0.54668417 </v>
   <v>       0.64811493       0.57241792       0.54181233 </v>
   <v>       0.64811313       0.67401605       0.58862177 </v>
   <v>       0.59915249       0.70031739       0.53884436 </v>
   <v>       0.56624373       0.66045213       0.61758060 </v>
   <v>       0.48068850       0.64371864       0.53050254 </v>
   <v>       0.92139961       0.34263559       0.54109736 </v>
   <v>       0.02232700       0.34113654       0.58723230 </v>
   <v>       0.09736460       0.38980857       0.53706886 </v>
   <v>       0.09163444       0.42284085       0.61610870 </v>
   <v>       0.16144691       0.50957848       0.52725467 </v>
   <v>       0.41983839       0.06976369       0.53931043 </v>
   <v>       0.31768609       0.96853721       0.58593890 </v>
   <v>       0.29076586       0.89346360       0.53539359 </v>
   <v>       0.32965919       0.89879023       0.61423795 </v>
   <v>       0.34652015       0.82899563       0.52560885 </v>
   <v>       0.54272823       0.39310971       0.46889016 </v>
   <v>       0.84961966       0.45078448       0.47093940 </v>
   <v>       0.59978606       0.14232841       0.46986789 </v>
   <v>       0.73192022       0.34015636       0.49466484 </v>
   <v>       0.67482590       0.27186563       0.49419391 </v>
   <v>       0.60677679       0.26007564       0.49397700 </v>
   <v>       0.59581065       0.31730843       0.49448109 </v>
   <v>       0.72025209       0.39667367       0.49528655 </v>
   <v>       0.80264924       0.34709858       0.50097825 </v>
   <v>       0.54291361       0.18896915       0.49966736 </v>
   <v>       0.25697905       0.63307730       0.54469606 </v>
   <v>       0.30215394       0.70553884       0.54495192 </v>
   <v>       0.37430712       0.73364075       0.54398753 </v>
   <v>       0.40135783       0.68835370       0.54366174 </v>
   <v>       0.28496989       0.58881375       0.54431858 </v>
   <v>       0.18017887       0.60893624       0.54428924 </v>
   <v>       0.42708820       0.81070749       0.54275131 </v>
   <v>       0.59361297       0.55176733       0.52883626 </v>
   <v>       0.55934365       0.58861537       0.54082907 </v>
   <v>       0.48851030       0.55544047       0.52092926 </v>
   <v>       0.59505676       0.65938202       0.57319634 </v>
   <v>       0.95580290       0.39735324       0.52855133 </v>
   <v>       0.02691400       0.43093322       0.54022280 </v>
   <v>       0.06535554       0.50207540       0.52082903 </v>
   <v>       0.06117721       0.39425289       0.57184426 </v>
   <v>       0.43999881       0.03532077       0.52671207 </v>
   <v>       0.40239617       0.96399874       0.53838287 </v>
   <v>       0.43495126       0.92557397       0.51890306 </v>
   <v>       0.33158091       0.92955093       0.57017460 </v>
   <v>       0.65219243       0.38558510       0.49503756 </v>
   <v>       0.64503032       0.44939708       0.50195785 </v>
   <v>       0.35718094       0.61592135       0.54357578 </v>
   <v>       0.38089066       0.56271890       0.54201252 </v>
   <v>       0.55482381       0.48519964       0.49984848 </v>
   <v>       0.92881746       0.43711657       0.50046090 </v>
   <v>       0.50670282       0.06251560       0.49866010 </v>
   <v>       0.45147315       0.59082528       0.53034015 </v>
   <v>       0.13787359       0.53872278       0.52967328 </v>
   <v>       0.39919088       0.85290607       0.52808828 </v>
   <v>       0.45494723       0.49284706       0.49100938 </v>
   <v>       0.48774426       0.45738993       0.48127708 </v>
   <v>       0.58005736       0.43966206       0.48801202 </v>
   <v>       0.03699058       0.53659815       0.49186314 </v>
   <v>       0.96880991       0.50456944       0.48258577 </v>
   <v>       0.85825708       0.41268080       0.48896143 </v>
   <v>       0.49763567       0.95404695       0.48967658 </v>
   <v>       0.53394372       0.02250696       0.48053552 </v>
   <v>       0.55297441       0.13340616       0.48760898 </v>
  </varray>
 </structure>
</modeling>
