<?xml version="1.0" encoding="ISO-8859-1"?>
<modeling>
 <generator>
  <i name="program" type="string">vasp </i>
  <i name="version" type="string">5.4.4.18Apr17-6-g9f103f2a35  </i>
  <i name="subversion" type="string">(build Jun 07 2020 16:50:00) complex            parallel </i>
  <i name="platform" type="string">LinuxIFC </i>
  <i name="date" type="string">2023 02 17 </i>
  <i name="time" type="string">19:33:23 </i>
 </generator>
 <incar>
  <i type="string" name="SYSTEM">Simulation for cell shape cell volume r</i>
  <i type="int" name="ISTART">     1</i>
  <i type="string" name="PREC">high</i>
  <i type="string" name="ALGO">48</i>
  <i type="int" name="ICHARG">    11</i>
  <i type="int" name="NELM">   200</i>
  <i type="int" name="IBRION">    -1</i>
  <i name="EDIFF">      0.00001000</i>
  <i name="EDIFFG">     -0.01000000</i>
  <i type="int" name="NSW">     0</i>
  <i type="int" name="ISIF">     2</i>
  <i name="ENCUT">    500.00000000</i>
  <i name="POTIM">      0.30000000</i>
  <i type="string" name="LREAL">A</i>
  <i type="int" name="ISMEAR">     0</i>
  <i name="SIGMA">      0.01000000</i>
  <i type="int" name="NWRITE">     0</i>
  <i type="logical" name="LWAVE"> F  </i>
  <i type="logical" name="LCHARG"> F  </i>
  <v type="int" name="KPOINT_BSE">    -1     0     0     0</v>
  <i type="int" name="NELM">   200</i>
  <i type="string" name="GGA">PE</i>
 </incar>
 <structure name="primitive_cell" >
  <crystal>
   <varray name="basis" >
    <v>      22.23942973      -0.00201719       0.00000000 </v>
    <v>     -11.12146421      19.24081784       0.00000000 </v>
    <v>       0.00000000       0.00000000      20.00000000 </v>
   </varray>
   <i name="volume">   8557.64764406 </i>
   <varray name="rec_basis" >
    <v>       0.04496754       0.02599187       0.00000000 </v>
    <v>       0.00000471       0.05197557       0.00000000 </v>
    <v>       0.00000000       0.00000000       0.05000000 </v>
   </varray>
  </crystal>
  <varray name="positions" >
   <v>       0.34711959      -0.38661135       0.49071241 </v>
   <v>       0.39790892      -0.31634818       0.49065808 </v>
   <v>       0.27682485      -0.40537336       0.48971653 </v>
   <v>       0.36245128      -0.44499451       0.49768405 </v>
   <v>       0.23937146      -0.46086220       0.49360172 </v>
   <v>       0.45334839      -0.29812014       0.49510805 </v>
   <v>       0.31686217       0.49589842      -0.48710298 </v>
   <v>       0.25750676      -0.35451722       0.48832676 </v>
   <v>       0.43121261      -0.42600460       0.48647492 </v>
   <v>       0.37927939      -0.26472363       0.48939032 </v>
   <v>       0.46228703      -0.37835895       0.46627093 </v>
   <v>       0.30910518      -0.28419235       0.48840287 </v>
   <v>       0.43773711      -0.19090480       0.49504416 </v>
   <v>       0.46317526      -0.46533203       0.49842757 </v>
   <v>       0.18381477      -0.36949703       0.49295215 </v>
   <v>       0.15014005      -0.46956451       0.46150491 </v>
   <v>       0.29079386      -0.24692909       0.49110406 </v>
   <v>       0.49712608      -0.17721514      -0.49092693 </v>
   <v>       0.13379647      -0.43808062       0.48107782 </v>
   <v>       0.43218333       0.47836489      -0.46323243 </v>
   <v>       0.17043269      -0.32360539      -0.49283398 </v>
   <v>      -0.47062868      -0.44427789       0.47087427 </v>
   <v>       0.41871592      -0.14108330       0.48429337 </v>
   <v>       0.37103217      -0.15740550       0.46439245 </v>
   <v>      -0.44538686      -0.39918568       0.43749381 </v>
   <v>       0.35735475       0.40534136      -0.41148332 </v>
   <v>       0.06268804      -0.46958401       0.49381205 </v>
   <v>       0.46556742       0.44352319      -0.45091735 </v>
   <v>      -0.43642958      -0.47756733       0.48317834 </v>
   <v>       0.36239508       0.36709753      -0.39137054 </v>
   <v>       0.03549713       0.43943046       0.43141233 </v>
   <v>       0.45864208      -0.06980838       0.49629647 </v>
   <v>       0.01667157       0.46457176       0.46605309 </v>
   <v>       0.03850461      -0.43836485      -0.46677528 </v>
   <v>      -0.46696347       0.46619709      -0.47672261 </v>
   <v>       0.42553706       0.37932259      -0.40951313 </v>
   <v>      -0.48622727      -0.04538956      -0.46387815 </v>
   <v>      -0.41467345      -0.04842128      -0.41084487 </v>
   <v>       0.39580379      -0.04290280       0.43227145 </v>
   <v>       0.43949003      -0.02382231       0.46728721 </v>
   <v>       0.04181543      -0.36300251      -0.41471497 </v>
   <v>      -0.05053358       0.43062408       0.47968963 </v>
   <v>      -0.02943914      -0.47146934      -0.45315064 </v>
   <v>       0.44797198       0.34070521      -0.39367825 </v>
   <v>      -0.43487626       0.42846377      -0.46273678 </v>
   <v>      -0.37672699      -0.00552301      -0.38985359 </v>
   <v>      -0.45096234       0.02279472      -0.45119821 </v>
   <v>      -0.46658222       0.38404368      -0.43587677 </v>
   <v>      -0.07499199       0.46105949      -0.47865728 </v>
   <v>      -0.00091334      -0.36783417      -0.39352732 </v>
   <v>       0.47311585       0.04361974       0.48005418 </v>
   <v>      -0.38797834       0.04600211      -0.40829680 </v>
   <v>      -0.05241963      -0.43110359      -0.41082195 </v>
   <v>      -0.47218021       0.06837291      -0.47800025 </v>
   <v>      -0.36659854       0.44553577      -0.47679534 </v>
   <v>      -0.32055979      -0.49631614      -0.49324941 </v>
   <v>      -0.14441667       0.42881667      -0.46297202 </v>
   <v>      -0.46209391       0.30065691      -0.47348100 </v>
   <v>      -0.11305834      -0.45342019      -0.39359320 </v>
   <v>      -0.34949553       0.10683468      -0.39156245 </v>
   <v>      -0.15667754       0.46050252      -0.43554804 </v>
   <v>      -0.43450535       0.13805937      -0.46320471 </v>
   <v>      -0.35409545       0.38528180      -0.47074631 </v>
   <v>      -0.18368919       0.31445035      -0.49344391 </v>
   <v>      -0.39086139       0.15035445      -0.43527563 </v>
   <v>      -0.19575941       0.36047140      -0.47690374 </v>
   <v>      -0.40725397       0.31589006      -0.47086052 </v>
   <v>      -0.24494557       0.45595953      -0.47322267 </v>
   <v>      -0.45149266       0.18937222      -0.47729871 </v>
   <v>       0.49049742       0.17723532      -0.49410316 </v>
   <v>      -0.28461106       0.40107993      -0.47068988 </v>
   <v>      -0.39145793       0.26217059      -0.47091043 </v>
   <v>      -0.26844041       0.34791393      -0.47072044 </v>
   <v>      -0.30703247       0.23869974      -0.47352062 </v>
   <v>      -0.32215551       0.27838621      -0.47083969 </v>
  </varray>
 </structure>
 <varray name="primitive_index" >
  <v type="int" >        1 </v>
  <v type="int" >        5 </v>
  <v type="int" >        2 </v>
  <v type="int" >        6 </v>
  <v type="int" >       60 </v>
  <v type="int" >       59 </v>
  <v type="int" >       47 </v>
  <v type="int" >        3 </v>
  <v type="int" >       43 </v>
  <v type="int" >       24 </v>
  <v type="int" >       73 </v>
  <v type="int" >        4 </v>
  <v type="int" >       25 </v>
  <v type="int" >       31 </v>
  <v type="int" >        7 </v>
  <v type="int" >       75 </v>
  <v type="int" >       58 </v>
  <v type="int" >       46 </v>
  <v type="int" >       45 </v>
  <v type="int" >       36 </v>
  <v type="int" >       48 </v>
  <v type="int" >       30 </v>
  <v type="int" >       41 </v>
  <v type="int" >       71 </v>
  <v type="int" >       72 </v>
  <v type="int" >       66 </v>
  <v type="int" >       33 </v>
  <v type="int" >       19 </v>
  <v type="int" >       42 </v>
  <v type="int" >       55 </v>
  <v type="int" >       74 </v>
  <v type="int" >       29 </v>
  <v type="int" >       32 </v>
  <v type="int" >       38 </v>
  <v type="int" >       18 </v>
  <v type="int" >       20 </v>
  <v type="int" >       34 </v>
  <v type="int" >       64 </v>
  <v type="int" >       70 </v>
  <v type="int" >       28 </v>
  <v type="int" >       68 </v>
  <v type="int" >       44 </v>
  <v type="int" >       22 </v>
  <v type="int" >       54 </v>
  <v type="int" >       37 </v>
  <v type="int" >       53 </v>
  <v type="int" >       16 </v>
  <v type="int" >       67 </v>
  <v type="int" >       21 </v>
  <v type="int" >       57 </v>
  <v type="int" >       40 </v>
  <v type="int" >       17 </v>
  <v type="int" >       23 </v>
  <v type="int" >       15 </v>
  <v type="int" >       13 </v>
  <v type="int" >       50 </v>
  <v type="int" >       39 </v>
  <v type="int" >       62 </v>
  <v type="int" >       56 </v>
  <v type="int" >       52 </v>
  <v type="int" >       69 </v>
  <v type="int" >       35 </v>
  <v type="int" >        8 </v>
  <v type="int" >       51 </v>
  <v type="int" >       65 </v>
  <v type="int" >       14 </v>
  <v type="int" >       12 </v>
  <v type="int" >       63 </v>
  <v type="int" >       27 </v>
  <v type="int" >       49 </v>
  <v type="int" >        9 </v>
  <v type="int" >       26 </v>
  <v type="int" >       10 </v>
  <v type="int" >       61 </v>
  <v type="int" >       11 </v>
 </varray>
 <kpoints>
  <generation param="listgenerated">
   <i name="divisions" type="int">      20 </i>
   <v>       0.00000000       0.00000000       0.00000000 </v>
   <v>       0.50000000       0.00000000       0.00000000 </v>
   <v>       0.33333333       0.33333333       0.00000000 </v>
   <v>       0.00000000       0.00000000       0.00000000 </v>
  </generation>
  <varray name="kpointlist" >
   <v>       0.00000000       0.00000000       0.00000000 </v>
   <v>       0.02631579       0.00000000       0.00000000 </v>
   <v>       0.05263158       0.00000000       0.00000000 </v>
   <v>       0.07894737       0.00000000       0.00000000 </v>
   <v>       0.10526316       0.00000000       0.00000000 </v>
   <v>       0.13157895       0.00000000       0.00000000 </v>
   <v>       0.15789474       0.00000000       0.00000000 </v>
   <v>       0.18421053       0.00000000       0.00000000 </v>
   <v>       0.21052632       0.00000000       0.00000000 </v>
   <v>       0.23684211       0.00000000       0.00000000 </v>
   <v>       0.26315789       0.00000000       0.00000000 </v>
   <v>       0.28947368       0.00000000       0.00000000 </v>
   <v>       0.31578947       0.00000000       0.00000000 </v>
   <v>       0.34210526       0.00000000       0.00000000 </v>
   <v>       0.36842105       0.00000000       0.00000000 </v>
   <v>       0.39473684       0.00000000       0.00000000 </v>
   <v>       0.42105263       0.00000000       0.00000000 </v>
   <v>       0.44736842       0.00000000       0.00000000 </v>
   <v>       0.47368421       0.00000000       0.00000000 </v>
   <v>       0.50000000       0.00000000       0.00000000 </v>
   <v>       0.50000000       0.00000000       0.00000000 </v>
   <v>       0.49122807       0.01754386       0.00000000 </v>
   <v>       0.48245614       0.03508772       0.00000000 </v>
   <v>       0.47368421       0.05263158       0.00000000 </v>
   <v>       0.46491228       0.07017544       0.00000000 </v>
   <v>       0.45614035       0.08771930       0.00000000 </v>
   <v>       0.44736842       0.10526316       0.00000000 </v>
   <v>       0.43859649       0.12280702       0.00000000 </v>
   <v>       0.42982456       0.14035088       0.00000000 </v>
   <v>       0.42105263       0.15789474       0.00000000 </v>
   <v>       0.41228070       0.17543860       0.00000000 </v>
   <v>       0.40350877       0.19298246       0.00000000 </v>
   <v>       0.39473684       0.21052632       0.00000000 </v>
   <v>       0.38596491       0.22807018       0.00000000 </v>
   <v>       0.37719298       0.24561404       0.00000000 </v>
   <v>       0.36842105       0.26315789       0.00000000 </v>
   <v>       0.35964912       0.28070175       0.00000000 </v>
   <v>       0.35087719       0.29824561       0.00000000 </v>
   <v>       0.34210526       0.31578947       0.00000000 </v>
   <v>       0.33333333       0.33333333       0.00000000 </v>
   <v>       0.33333333       0.33333333       0.00000000 </v>
   <v>       0.31578947       0.31578947       0.00000000 </v>
   <v>       0.29824561       0.29824561       0.00000000 </v>
   <v>       0.28070175       0.28070175       0.00000000 </v>
   <v>       0.26315789       0.26315789       0.00000000 </v>
   <v>       0.24561404       0.24561404       0.00000000 </v>
   <v>       0.22807018       0.22807018       0.00000000 </v>
   <v>       0.21052632       0.21052632       0.00000000 </v>
   <v>       0.19298246       0.19298246       0.00000000 </v>
   <v>       0.17543860       0.17543860       0.00000000 </v>
   <v>       0.15789474       0.15789474       0.00000000 </v>
   <v>       0.14035088       0.14035088       0.00000000 </v>
   <v>       0.12280702       0.12280702       0.00000000 </v>
   <v>       0.10526316       0.10526316       0.00000000 </v>
   <v>       0.08771930       0.08771930       0.00000000 </v>
   <v>       0.07017544       0.07017544       0.00000000 </v>
   <v>       0.05263158       0.05263158       0.00000000 </v>
   <v>       0.03508772       0.03508772       0.00000000 </v>
   <v>       0.01754386       0.01754386       0.00000000 </v>
   <v>       0.00000000       0.00000000       0.00000000 </v>
  </varray>
  <varray name="weights" >
   <v>       0.01666667 </v>
   <v>       0.01666667 </v>
   <v>       0.01666667 </v>
   <v>       0.01666667 </v>
   <v>       0.01666667 </v>
   <v>       0.01666667 </v>
   <v>       0.01666667 </v>
   <v>       0.01666667 </v>
   <v>       0.01666667 </v>
   <v>       0.01666667 </v>
   <v>       0.01666667 </v>
   <v>       0.01666667 </v>
   <v>       0.01666667 </v>
   <v>       0.01666667 </v>
   <v>       0.01666667 </v>
   <v>       0.01666667 </v>
   <v>       0.01666667 </v>
   <v>       0.01666667 </v>
   <v>       0.01666667 </v>
   <v>       0.01666667 </v>
   <v>       0.01666667 </v>
   <v>       0.01666667 </v>
   <v>       0.01666667 </v>
   <v>       0.01666667 </v>
   <v>       0.01666667 </v>
   <v>       0.01666667 </v>
   <v>       0.01666667 </v>
   <v>       0.01666667 </v>
   <v>       0.01666667 </v>
   <v>       0.01666667 </v>
   <v>       0.01666667 </v>
   <v>       0.01666667 </v>
   <v>       0.01666667 </v>
   <v>       0.01666667 </v>
   <v>       0.01666667 </v>
   <v>       0.01666667 </v>
   <v>       0.01666667 </v>
   <v>       0.01666667 </v>
   <v>       0.01666667 </v>
   <v>       0.01666667 </v>
   <v>       0.01666667 </v>
   <v>       0.01666667 </v>
   <v>       0.01666667 </v>
   <v>       0.01666667 </v>
   <v>       0.01666667 </v>
   <v>       0.01666667 </v>
   <v>       0.01666667 </v>
   <v>       0.01666667 </v>
   <v>       0.01666667 </v>
   <v>       0.01666667 </v>
   <v>       0.01666667 </v>
   <v>       0.01666667 </v>
   <v>       0.01666667 </v>
   <v>       0.01666667 </v>
   <v>       0.01666667 </v>
   <v>       0.01666667 </v>
   <v>       0.01666667 </v>
   <v>       0.01666667 </v>
   <v>       0.01666667 </v>
   <v>       0.01666667 </v>
  </varray>
 </kpoints>
 <parameters>
  <separator name="general" >
   <i type="string" name="SYSTEM">Simulation for cell shape cell volume r</i>
   <i type="logical" name="LCOMPAT"> F  </i>
  </separator>
  <separator name="electronic" >
   <i type="string" name="PREC">high</i>
   <i name="ENMAX">    500.00000000</i>
   <i name="ENAUG">    644.87300000</i>
   <i name="EDIFF">      0.00001000</i>
   <i type="int" name="IALGO">    38</i>
   <i type="int" name="IWAVPR">    10</i>
   <i type="int" name="NBANDS">   192</i>
   <i name="NELECT">    282.00000000</i>
   <i type="int" name="TURBO">     0</i>
   <i type="int" name="IRESTART">     0</i>
   <i type="int" name="NREBOOT">     0</i>
   <i type="int" name="NMIN">     0</i>
   <i name="EREF">      0.00000000</i>
   <separator name="electronic smearing" >
    <i type="int" name="ISMEAR">     0</i>
    <i name="SIGMA">      0.01000000</i>
    <i name="KSPACING">      0.50000000</i>
    <i type="logical" name="KGAMMA"> T  </i>
   </separator>
   <separator name="electronic projectors" >
    <i type="logical" name="LREAL"> T  </i>
    <v name="ROPT">     -0.00040000     -0.00040000     -0.00040000     -0.00040000</v>
    <i type="int" name="LMAXPAW">  -100</i>
    <i type="int" name="LMAXMIX">     2</i>
    <i type="logical" name="NLSPLINE"> F  </i>
   </separator>
   <separator name="electronic startup" >
    <i type="int" name="ISTART">     1</i>
    <i type="int" name="ICHARG">    11</i>
    <i type="int" name="INIWAV">     1</i>
   </separator>
   <separator name="electronic spin" >
    <i type="int" name="ISPIN">     1</i>
    <i type="logical" name="LNONCOLLINEAR"> F  </i>
    <v name="MAGMOM">      1.00000000      1.00000000      1.00000000      1.00000000      1.00000000      1.00000000      1.00000000      1.00000000      1.00000000      1.00000000      1.00000000      1.00000000      1.00000000      1.00000000      1.00000000      1.00000000      1.00000000      1.00000000      1.00000000      1.00000000
      1.00000000      1.00000000      1.00000000      1.00000000      1.00000000      1.00000000      1.00000000      1.00000000      1.00000000      1.00000000      1.00000000      1.00000000      1.00000000      1.00000000      1.00000000      1.00000000      1.00000000      1.00000000      1.00000000      1.00000000
      1.00000000      1.00000000      1.00000000      1.00000000      1.00000000      1.00000000      1.00000000      1.00000000      1.00000000      1.00000000      1.00000000      1.00000000      1.00000000      1.00000000      1.00000000      1.00000000      1.00000000      1.00000000      1.00000000      1.00000000
      1.00000000      1.00000000      1.00000000      1.00000000      1.00000000      1.00000000      1.00000000      1.00000000      1.00000000      1.00000000      1.00000000      1.00000000      1.00000000      1.00000000      1.00000000</v>
    <i name="NUPDOWN">     -1.00000000</i>
    <i type="logical" name="LSORBIT"> F  </i>
    <v name="SAXIS">      0.00000000      0.00000000      1.00000000</v>
    <i type="logical" name="LSPIRAL"> F  </i>
    <v name="QSPIRAL">      0.00000000      0.00000000      0.00000000</v>
    <i type="logical" name="LZEROZ"> F  </i>
   </separator>
   <separator name="electronic exchange-correlation" >
    <i type="logical" name="LASPH"> F  </i>
    <i type="logical" name="LMETAGGA"> F  </i>
   </separator>
   <separator name="electronic convergence" >
    <i type="int" name="NELM">   200</i>
    <i type="int" name="NELMDL">     0</i>
    <i type="int" name="NELMIN">     2</i>
    <i name="ENINI">    500.00000000</i>
    <separator name="electronic convergence detail" >
     <i type="logical" name="LDIAG"> T  </i>
     <i type="logical" name="LSUBROT"> F  </i>
     <i name="WEIMIN">      0.00000000</i>
     <i name="EBREAK">      0.00000001</i>
     <i name="DEPER">      0.30000000</i>
     <i type="int" name="NRMM">     4</i>
     <i name="TIME">      0.40000000</i>
    </separator>
   </separator>
   <separator name="electronic mixer" >
    <i name="AMIX">      0.40000000</i>
    <i name="BMIX">      1.00000000</i>
    <i name="AMIN">      0.10000000</i>
    <i name="AMIX_MAG">      1.60000000</i>
    <i name="BMIX_MAG">      1.00000000</i>
    <separator name="electronic mixer details" >
     <i type="int" name="IMIX">     4</i>
     <i type="logical" name="MIXFIRST"> F  </i>
     <i type="int" name="MAXMIX">   -45</i>
     <i name="WC">    100.00000000</i>
     <i type="int" name="INIMIX">     1</i>
     <i type="int" name="MIXPRE">     1</i>
     <i type="int" name="MREMOVE">     5</i>
    </separator>
   </separator>
   <separator name="electronic dipolcorrection" >
    <i type="logical" name="LDIPOL"> F  </i>
    <i type="logical" name="LMONO"> F  </i>
    <i type="int" name="IDIPOL">     0</i>
    <i name="EPSILON">      1.00000000</i>
    <v name="DIPOL">   -100.00000000   -100.00000000   -100.00000000</v>
    <i name="EFIELD">      0.00000000</i>
   </separator>
  </separator>
  <separator name="grids" >
   <i type="int" name="NGX">   162</i>
   <i type="int" name="NGY">   162</i>
   <i type="int" name="NGZ">   150</i>
   <i type="int" name="NGXF">   250</i>
   <i type="int" name="NGYF">   250</i>
   <i type="int" name="NGZF">   224</i>
   <i type="logical" name="ADDGRID"> F  </i>
  </separator>
  <separator name="ionic" >
   <i type="int" name="NSW">     0</i>
   <i type="int" name="IBRION">    -1</i>
   <i type="int" name="MDALGO">     0</i>
   <i type="int" name="ISIF">     2</i>
   <i name="PSTRESS">      0.00000000</i>
   <i name="EDIFFG">     -0.01000000</i>
   <i type="int" name="NFREE">     0</i>
   <i name="POTIM">      0.30000000</i>
   <i name="SMASS">     -3.00000000</i>
   <i name="SCALEE">      1.00000000</i>
  </separator>
  <separator name="ionic md" >
   <i name="TEBEG">      0.00010000</i>
   <i name="TEEND">      0.00010000</i>
   <i type="int" name="NBLOCK">     1</i>
   <i type="int" name="KBLOCK">     1</i>
   <i type="int" name="NPACO">   256</i>
   <i name="APACO">     16.00000000</i>
  </separator>
  <separator name="symmetry" >
   <i type="int" name="ISYM">     2</i>
   <i name="SYMPREC">      0.00001000</i>
  </separator>
  <separator name="dos" >
   <i type="int" name="LORBIT">     0</i>
   <v name="RWIGS">     -1.00000000     -1.00000000     -1.00000000     -1.00000000</v>
   <i type="int" name="NEDOS">   301</i>
   <i name="EMIN">     10.00000000</i>
   <i name="EMAX">    -10.00000000</i>
   <i name="EFERMI">      0.00000000</i>
  </separator>
  <separator name="writing" >
   <i type="int" name="NWRITE">     0</i>
   <i type="logical" name="LWAVE"> F  </i>
   <i type="logical" name="LDOWNSAMPLE"> F  </i>
   <i type="logical" name="LCHARG"> F  </i>
   <i type="logical" name="LPARD"> F  </i>
   <i type="logical" name="LVTOT"> F  </i>
   <i type="logical" name="LVHAR"> F  </i>
   <i type="logical" name="LELF"> F  </i>
   <i type="logical" name="LOPTICS"> F  </i>
   <v name="STM">      0.00000000      0.00000000      0.00000000      0.00000000      0.00000000      0.00000000      0.00000000</v>
  </separator>
  <separator name="performance" >
   <i type="int" name="NPAR">    16</i>
   <i type="int" name="NSIM">     4</i>
   <i type="int" name="NBLK">    -1</i>
   <i type="logical" name="LPLANE"> T  </i>
   <i type="logical" name="LSCALAPACK"> T  </i>
   <i type="logical" name="LSCAAWARE"> F  </i>
   <i type="logical" name="LSCALU"> F  </i>
   <i type="logical" name="LASYNC"> F  </i>
   <i type="logical" name="LORBITALREAL"> F  </i>
  </separator>
  <separator name="miscellaneous" >
   <i type="int" name="IDIOT">     3</i>
   <i type="int" name="ISPECIAL">     0</i>
   <i type="logical" name="LMUSIC"> F  </i>
   <v name="POMASS">     12.01100000     14.00100000     16.00000000      1.00000000</v>
   <v name="DARWINR">      0.00000000      0.00000000      0.00000000      0.00000000</v>
   <v name="DARWINV">      1.00000000      1.00000000      1.00000000      1.00000000</v>
   <i type="logical" name="LCORR"> T  </i>
  </separator>
  <i type="logical" name="GGA_COMPAT"> T  </i>
  <i type="logical" name="LBERRY"> F  </i>
  <i type="int" name="ICORELEVEL">     0</i>
  <i type="logical" name="LDAU"> F  </i>
  <i type="int" name="I_CONSTRAINED_M">     0</i>
  <separator name="electronic exchange-correlation" >
   <i type="string" name="GGA">PE</i>
   <i type="int" name="VOSKOWN">     0</i>
   <i type="logical" name="LHFCALC"> F  </i>
   <i type="string" name="PRECFOCK"></i>
   <i type="logical" name="LSYMGRAD"> F  </i>
   <i type="logical" name="LHFONE"> F  </i>
   <i type="logical" name="LRHFCALC"> F  </i>
   <i type="logical" name="LTHOMAS"> F  </i>
   <i type="logical" name="LMODELHF"> F  </i>
   <i name="ENCUT4O">     -1.00000000</i>
   <i type="int" name="EXXOEP">     0</i>
   <i type="int" name="FOURORBIT">     0</i>
   <i name="AEXX">      0.00000000</i>
   <i name="HFALPHA">      0.00000000</i>
   <i name="MCALPHA">      0.00000000</i>
   <i name="ALDAX">      1.00000000</i>
   <i name="AGGAX">      1.00000000</i>
   <i name="ALDAC">      1.00000000</i>
   <i name="AGGAC">      1.00000000</i>
   <i type="int" name="NKREDX">     1</i>
   <i type="int" name="NKREDY">     1</i>
   <i type="int" name="NKREDZ">     1</i>
   <i type="logical" name="SHIFTRED"> F  </i>
   <i type="logical" name="ODDONLY"> F  </i>
   <i type="logical" name="EVENONLY"> F  </i>
   <i type="int" name="LMAXFOCK">     0</i>
   <i type="int" name="NMAXFOCKAE">     0</i>
   <i type="logical" name="LFOCKAEDFT"> F  </i>
   <i name="HFSCREEN">      0.00000000</i>
   <i name="HFSCREENC">      0.00000000</i>
   <i type="int" name="NBANDSGWLOW">     0</i>
  </separator>
  <separator name="vdW DFT" >
   <i type="logical" name="LUSE_VDW"> F  </i>
   <i name="Zab_VDW">     -0.84910000</i>
   <i name="PARAM1">      0.12340000</i>
   <i name="PARAM2">      1.00000000</i>
   <i name="PARAM3">      0.00000000</i>
  </separator>
  <separator name="model GW" >
   <i type="int" name="MODEL_GW">     0</i>
   <i name="MODEL_EPS0">     68.46118115</i>
   <i name="MODEL_ALPHA">      1.00000000</i>
  </separator>
  <separator name="linear response parameters" >
   <i type="logical" name="LEPSILON"> F  </i>
   <i type="logical" name="LRPA"> F  </i>
   <i type="logical" name="LNABLA"> F  </i>
   <i type="logical" name="LVEL"> F  </i>
   <i type="int" name="KINTER">     0</i>
   <i name="CSHIFT">      0.10000000</i>
   <i name="OMEGAMAX">     -1.00000000</i>
   <i name="DEG_THRESHOLD">      0.00200000</i>
   <i name="RTIME">     -0.10000000</i>
   <i name="WPLASMAI">      0.00000000</i>
   <v name="DFIELD">      0.00000000      0.00000000      0.00000000</v>
   <v name="WPLASMA">      0.00000000      0.00000000      0.00000000      0.00000000      0.00000000      0.00000000      0.00000000      0.00000000      0.00000000</v>
  </separator>
  <separator name="orbital magnetization" >
   <i type="logical" name="NUCIND"> F  </i>
   <v name="MAGPOS">      0.00000000      0.00000000      0.00000000</v>
   <i type="logical" name="LNICSALL"> T  </i>
   <i type="logical" name="ORBITALMAG"> F  </i>
   <i type="logical" name="LMAGBLOCH"> F  </i>
   <i type="logical" name="LCHIMAG"> F  </i>
   <i type="logical" name="LGAUGE"> T  </i>
   <i type="int" name="MAGATOM">     0</i>
   <v name="MAGDIPOL">      0.00000000      0.00000000      0.00000000</v>
   <v name="AVECCONST">      0.00000000      0.00000000      0.00000000</v>
  </separator>
  <separator name="response functions" >
   <i type="logical" name="LADDER"> F  </i>
   <i type="logical" name="LRPAFORCE"> F  </i>
   <i type="logical" name="LFXC"> F  </i>
   <i type="logical" name="LHARTREE"> T  </i>
   <i type="int" name="IBSE">     0</i>
   <v type="int" name="KPOINT">    -1     0     0     0</v>
   <i type="logical" name="LTCTE"> F  </i>
   <i type="logical" name="LTETE"> F  </i>
   <i type="logical" name="LTRIPLET"> F  </i>
   <i type="logical" name="LFXCEPS"> F  </i>
   <i type="logical" name="LFXHEG"> F  </i>
   <i type="int" name="NATURALO">     2</i>
   <i type="logical" name="L2ORDER"> F  </i>
   <i type="logical" name="LMP2LT"> F  </i>
   <i type="logical" name="LUSEW"> F  </i>
   <i name="ENCUTGW">     -2.00000000</i>
   <i name="ENCUTGWSOFT">     -2.00000000</i>
   <i name="ENCUTLF">     -1.00000000</i>
   <i type="int" name="LMAXMP2">    -1</i>
   <i name="SCISSOR">      0.00000000</i>
   <i type="int" name="NOMEGA">     0</i>
   <i type="int" name="NOMEGAR">     0</i>
   <i type="int" name="NBANDSGW">    -1</i>
   <i type="int" name="NBANDSO">    -1</i>
   <i type="int" name="NBANDSV">    -1</i>
   <i type="int" name="NELM">   200</i>
   <i type="int" name="NELMHF">     1</i>
   <i type="int" name="DIM">     3</i>
   <i type="int" name="ANTIRES">     0</i>
   <i name="OMEGAMAX">    -30.00000000</i>
   <i name="OMEGAMIN">    -30.00000000</i>
   <i name="OMEGATL">   -200.00000000</i>
   <i type="int" name="OMEGAGRID">   140</i>
   <i name="CSHIFT">     -0.10000000</i>
   <i type="logical" name="SELFENERGY"> F  </i>
   <i type="logical" name="LSPECTRAL"> F  </i>
   <i type="logical" name="LSPECTRALGW"> F  </i>
   <i type="logical" name="LSINGLES"> F  </i>
   <i type="logical" name="LFERMIGW"> F  </i>
   <i type="logical" name="ODDONLYGW"> F  </i>
   <i type="logical" name="EVENONLYGW"> F  </i>
   <i type="int" name="NKREDLFX">     1</i>
   <i type="int" name="NKREDLFY">     1</i>
   <i type="int" name="NKREDLFZ">     1</i>
   <i type="int" name="MAXMEM">  2800</i>
   <i type="int" name="TELESCOPE">     0</i>
   <i type="int" name="TAUPAR">     1</i>
   <i type="int" name="OMEGAPAR">    -1</i>
   <i name="LAMBDA">      1.00000000</i>
  </separator>
  <separator name="External order field" >
   <i name="OFIELD_KAPPA">      0.00000000</i>
   <v name="OFIELD_K">      0.00000000      0.00000000      0.00000000</v>
   <i name="OFIELD_Q6_NEAR">      0.00000000</i>
   <i name="OFIELD_Q6_FAR">      0.00000000</i>
   <i name="OFIELD_A">      0.00000000</i>
  </separator>
  <separator name="solvation model" >
   <i type="logical" name="LSOL"> F  </i>
  </separator>
 </parameters>
 <atominfo>
  <atoms>      75 </atoms>
  <types>       4 </types>
  <array name="atoms" >
   <dimension dim="1">ion</dimension>
   <field type="string">element</field>
   <field type="int">atomtype</field>
   <set>
    <rc><c>C </c><c>   1</c></rc>
    <rc><c>C </c><c>   1</c></rc>
    <rc><c>C </c><c>   1</c></rc>
    <rc><c>C </c><c>   1</c></rc>
    <rc><c>C </c><c>   1</c></rc>
    <rc><c>C </c><c>   1</c></rc>
    <rc><c>C </c><c>   1</c></rc>
    <rc><c>C </c><c>   1</c></rc>
    <rc><c>C </c><c>   1</c></rc>
    <rc><c>C </c><c>   1</c></rc>
    <rc><c>C </c><c>   1</c></rc>
    <rc><c>C </c><c>   1</c></rc>
    <rc><c>C </c><c>   1</c></rc>
    <rc><c>C </c><c>   1</c></rc>
    <rc><c>C </c><c>   1</c></rc>
    <rc><c>C </c><c>   1</c></rc>
    <rc><c>C </c><c>   1</c></rc>
    <rc><c>C </c><c>   1</c></rc>
    <rc><c>C </c><c>   1</c></rc>
    <rc><c>C </c><c>   1</c></rc>
    <rc><c>C </c><c>   1</c></rc>
    <rc><c>C </c><c>   1</c></rc>
    <rc><c>C </c><c>   1</c></rc>
    <rc><c>C </c><c>   1</c></rc>
    <rc><c>C </c><c>   1</c></rc>
    <rc><c>C </c><c>   1</c></rc>
    <rc><c>C </c><c>   1</c></rc>
    <rc><c>C </c><c>   1</c></rc>
    <rc><c>C </c><c>   1</c></rc>
    <rc><c>C </c><c>   1</c></rc>
    <rc><c>C </c><c>   1</c></rc>
    <rc><c>C </c><c>   1</c></rc>
    <rc><c>C </c><c>   1</c></rc>
    <rc><c>N </c><c>   2</c></rc>
    <rc><c>N </c><c>   2</c></rc>
    <rc><c>N </c><c>   2</c></rc>
    <rc><c>N </c><c>   2</c></rc>
    <rc><c>N </c><c>   2</c></rc>
    <rc><c>N </c><c>   2</c></rc>
    <rc><c>N </c><c>   2</c></rc>
    <rc><c>N </c><c>   2</c></rc>
    <rc><c>N </c><c>   2</c></rc>
    <rc><c>N </c><c>   2</c></rc>
    <rc><c>N </c><c>   2</c></rc>
    <rc><c>N </c><c>   2</c></rc>
    <rc><c>O </c><c>   3</c></rc>
    <rc><c>O </c><c>   3</c></rc>
    <rc><c>O </c><c>   3</c></rc>
    <rc><c>O </c><c>   3</c></rc>
    <rc><c>O </c><c>   3</c></rc>
    <rc><c>O </c><c>   3</c></rc>
    <rc><c>O </c><c>   3</c></rc>
    <rc><c>O </c><c>   3</c></rc>
    <rc><c>O </c><c>   3</c></rc>
    <rc><c>O </c><c>   3</c></rc>
    <rc><c>O </c><c>   3</c></rc>
    <rc><c>O </c><c>   3</c></rc>
    <rc><c>H </c><c>   4</c></rc>
    <rc><c>H </c><c>   4</c></rc>
    <rc><c>H </c><c>   4</c></rc>
    <rc><c>H </c><c>   4</c></rc>
    <rc><c>H </c><c>   4</c></rc>
    <rc><c>H </c><c>   4</c></rc>
    <rc><c>H </c><c>   4</c></rc>
    <rc><c>H </c><c>   4</c></rc>
    <rc><c>H </c><c>   4</c></rc>
    <rc><c>H </c><c>   4</c></rc>
    <rc><c>H </c><c>   4</c></rc>
    <rc><c>H </c><c>   4</c></rc>
    <rc><c>H </c><c>   4</c></rc>
    <rc><c>H </c><c>   4</c></rc>
    <rc><c>H </c><c>   4</c></rc>
    <rc><c>H </c><c>   4</c></rc>
    <rc><c>H </c><c>   4</c></rc>
    <rc><c>H </c><c>   4</c></rc>
   </set>
  </array>
  <array name="atomtypes" >
   <dimension dim="1">type</dimension>
   <field type="int">atomspertype</field>
   <field type="string">element</field>
   <field>mass</field>
   <field>valence</field>
   <field type="string">pseudopotential</field>
   <set>
    <rc><c>  33</c><c>C </c><c>     12.01100000</c><c>      4.00000000</c><c>  PAW_PBE C 08Apr2002                   </c></rc>
    <rc><c>  12</c><c>N </c><c>     14.00100000</c><c>      5.00000000</c><c>  PAW_PBE N 08Apr2002                   </c></rc>
    <rc><c>  12</c><c>O </c><c>     16.00000000</c><c>      6.00000000</c><c>  PAW_PBE O 08Apr2002                   </c></rc>
    <rc><c>  18</c><c>H </c><c>      1.00000000</c><c>      1.00000000</c><c>  PAW_PBE H 15Jun2001                   </c></rc>
   </set>
  </array>
 </atominfo>
 <structure name="initialpos" >
  <crystal>
   <varray name="basis" >
    <v>      22.23942973      -0.00201719       0.00000000 </v>
    <v>     -11.12146421      19.24081784       0.00000000 </v>
    <v>       0.00000000       0.00000000      20.00000000 </v>
   </varray>
   <i name="volume">   8557.64764406 </i>
   <varray name="rec_basis" >
    <v>       0.04496754       0.02599187       0.00000000 </v>
    <v>       0.00000471       0.05197557       0.00000000 </v>
    <v>       0.00000000       0.00000000       0.05000000 </v>
   </varray>
  </crystal>
  <varray name="positions" >
   <v>       0.34711959       0.61338865       0.49071241 </v>
   <v>       0.27682485       0.59462664       0.48971653 </v>
   <v>       0.25750676       0.64548278       0.48832676 </v>
   <v>       0.30910518       0.71580765       0.48840287 </v>
   <v>       0.39790892       0.68365182       0.49065808 </v>
   <v>       0.36245128       0.55500549       0.49768405 </v>
   <v>       0.18381477       0.63050297       0.49295215 </v>
   <v>       0.64590455       0.38528180       0.52925369 </v>
   <v>       0.71538894       0.40107993       0.52931012 </v>
   <v>       0.73155959       0.34791393       0.52927956 </v>
   <v>       0.67784449       0.27838621       0.52916031 </v>
   <v>       0.59274603       0.31589006       0.52913948 </v>
   <v>       0.63340146       0.44553577       0.52320466 </v>
   <v>       0.80424059       0.36047140       0.52309626 </v>
   <v>       0.52781979       0.06837291       0.52199975 </v>
   <v>       0.54903766       0.02279472       0.54880179 </v>
   <v>       0.61202166       0.04600211       0.59170320 </v>
   <v>       0.53303653       0.46619709       0.52327739 </v>
   <v>       0.46556742       0.44352319       0.54908265 </v>
   <v>       0.42553706       0.37932259       0.59048687 </v>
   <v>       0.92500801       0.46105949       0.52134272 </v>
   <v>       0.97056086       0.52853066       0.54684936 </v>
   <v>       0.94758037       0.56889641       0.58917805 </v>
   <v>       0.37927939       0.73527637       0.48939032 </v>
   <v>       0.43773711       0.80909520       0.49504416 </v>
   <v>       0.60854207       0.26217059       0.52908957 </v>
   <v>       0.54850734       0.18937222       0.52270129 </v>
   <v>       0.43949003       0.97617769       0.46728721 </v>
   <v>       0.45864208       0.93019162       0.49629647 </v>
   <v>       0.52937132       0.55572211       0.47087427 </v>
   <v>       0.46317526       0.53466797       0.49842757 </v>
   <v>       0.01667157       0.46457176       0.46605309 </v>
   <v>       0.06268804       0.53041599       0.49381205 </v>
   <v>       0.51377273       0.95461044       0.53612185 </v>
   <v>       0.56549465       0.13805937       0.53679529 </v>
   <v>       0.43218333       0.47836489       0.53676757 </v>
   <v>       0.56512374       0.42846377       0.53726322 </v>
   <v>       0.03850461       0.56163515       0.53322472 </v>
   <v>       0.85558333       0.42881667       0.53702798 </v>
   <v>       0.47311585       0.04361974       0.48005418 </v>
   <v>       0.41871592       0.85891670       0.48429337 </v>
   <v>       0.56357042       0.52243267       0.48317834 </v>
   <v>       0.43121261       0.57399540       0.48647492 </v>
   <v>       0.94946642       0.43062408       0.47968963 </v>
   <v>       0.13379647       0.56191938       0.48107782 </v>
   <v>       0.49712608       0.82278486       0.50907307 </v>
   <v>       0.31686217       0.49589842       0.51289702 </v>
   <v>       0.17043269       0.67639461       0.50716602 </v>
   <v>       0.49049742       0.17723532       0.50589684 </v>
   <v>       0.67944021       0.50368386       0.50675059 </v>
   <v>       0.81631081       0.31445035       0.50655609 </v>
   <v>       0.65050447       0.10683468       0.60843755 </v>
   <v>       0.62327301       0.99447699       0.61014641 </v>
   <v>       0.44797198       0.34070521       0.60632175 </v>
   <v>       0.36239508       0.36709753       0.60862946 </v>
   <v>       0.88694166       0.54657981       0.60640680 </v>
   <v>       0.99908666       0.63216583       0.60647268 </v>
   <v>       0.29079386       0.75307091       0.49110406 </v>
   <v>       0.45334839       0.70187986       0.49510805 </v>
   <v>       0.23937146       0.53913780       0.49360172 </v>
   <v>       0.69296753       0.23869974       0.52647938 </v>
   <v>       0.53790609       0.30065691       0.52651900 </v>
   <v>       0.75505443       0.45595953       0.52677733 </v>
   <v>       0.58532655       0.95157872       0.58915513 </v>
   <v>       0.60913861       0.15035445       0.56472437 </v>
   <v>       0.35735475       0.40534136       0.58851668 </v>
   <v>       0.53341778       0.38404368       0.56412323 </v>
   <v>       0.04181543       0.63699749       0.58528503 </v>
   <v>       0.84332246       0.46050252       0.56445196 </v>
   <v>       0.39580379       0.95709720       0.43227145 </v>
   <v>       0.37103217       0.84259450       0.46439245 </v>
   <v>       0.55461314       0.60081432       0.43749381 </v>
   <v>       0.46228703       0.62164105       0.46627093 </v>
   <v>       0.03549713       0.43943046       0.43141233 </v>
   <v>       0.15014005       0.53043549       0.46150491 </v>
  </varray>
 </structure>
 <calculation>
  <scstep>
   <time name="dav">  248.87  251.53</time>
   <time name="total">  249.01  251.67</time>
   <energy>
    <i name="alphaZ">     41.45684985 </i>
    <i name="ewald">  32460.21397803 </i>
    <i name="hartreedc"> -43588.91014039 </i>
    <i name="XCdc">   1089.36645981 </i>
    <i name="pawpsdc">  26708.52357874 </i>
    <i name="pawaedc"> -26772.31607834 </i>
    <i name="eentropy">     -0.00000000 </i>
    <i name="bandstr">  -3925.16457439 </i>
    <i name="atom">  13443.34906164 </i>
    <i name="e_fr_energy">   -543.48086505 </i>
    <i name="e_wo_entrp">   -543.48086505 </i>
    <i name="e_0_energy">   -543.48086505 </i>
   </energy>
  </scstep>
  <scstep>
   <time name="dav">  285.77  288.80</time>
   <time name="total">  285.77  288.80</time>
   <energy>
    <i name="e_fr_energy">   -544.22698791 </i>
    <i name="e_wo_entrp">   -544.22698791 </i>
    <i name="e_0_energy">   -544.22698791 </i>
   </energy>
  </scstep>
  <scstep>
   <time name="dav">  322.30  325.81</time>
   <time name="total">  322.31  325.81</time>
   <energy>
    <i name="e_fr_energy">   -544.24759484 </i>
    <i name="e_wo_entrp">   -544.24759484 </i>
    <i name="e_0_energy">   -544.24759484 </i>
   </energy>
  </scstep>
  <scstep>
   <time name="dav">  282.27  285.35</time>
   <time name="total">  282.27  285.35</time>
   <energy>
    <i name="e_fr_energy">   -544.24791872 </i>
    <i name="e_wo_entrp">   -544.24791872 </i>
    <i name="e_0_energy">   -544.24791872 </i>
   </energy>
  </scstep>
  <scstep>
   <time name="dav">  275.33  278.35</time>
   <time name="total">  275.33  278.35</time>
   <energy>
    <i name="e_fr_energy">   -544.24793372 </i>
    <i name="e_wo_entrp">   -544.24793372 </i>
    <i name="e_0_energy">   -544.24793372 </i>
   </energy>
  </scstep>
  <scstep>
   <time name="dav">  224.66  227.16</time>
   <time name="total">  224.66  227.16</time>
   <energy>
    <i name="alphaZ">     41.45684985 </i>
    <i name="ewald">  32460.21397803 </i>
    <i name="hartreedc"> -43588.91014039 </i>
    <i name="XCdc">   1089.36645981 </i>
    <i name="pawpsdc">  26708.52357874 </i>
    <i name="pawaedc"> -26772.31607834 </i>
    <i name="eentropy">     -0.00000000 </i>
    <i name="bandstr">  -3925.93164371 </i>
    <i name="atom">  13443.34906164 </i>
    <i name="e_fr_energy">   -544.24793437 </i>
    <i name="e_wo_entrp">   -544.24793437 </i>
    <i name="e_0_energy">   -544.24793437 </i>
   </energy>
  </scstep>
  <structure>
   <crystal>
    <varray name="basis" >
     <v>      22.23942973      -0.00201719       0.00000000 </v>
     <v>     -11.12146421      19.24081784       0.00000000 </v>
     <v>       0.00000000       0.00000000      20.00000000 </v>
    </varray>
    <i name="volume">   8557.64764406 </i>
    <varray name="rec_basis" >
     <v>       0.04496754       0.02599187       0.00000000 </v>
     <v>       0.00000471       0.05197557       0.00000000 </v>
     <v>       0.00000000       0.00000000       0.05000000 </v>
    </varray>
   </crystal>
   <varray name="positions" >
    <v>       0.34711959       0.61338865       0.49071241 </v>
    <v>       0.27682485       0.59462664       0.48971653 </v>
    <v>       0.25750676       0.64548278       0.48832676 </v>
    <v>       0.30910518       0.71580765       0.48840287 </v>
    <v>       0.39790892       0.68365182       0.49065808 </v>
    <v>       0.36245128       0.55500549       0.49768405 </v>
    <v>       0.18381477       0.63050297       0.49295215 </v>
    <v>       0.64590455       0.38528180       0.52925369 </v>
    <v>       0.71538894       0.40107993       0.52931012 </v>
    <v>       0.73155959       0.34791393       0.52927956 </v>
    <v>       0.67784449       0.27838621       0.52916031 </v>
    <v>       0.59274603       0.31589006       0.52913948 </v>
    <v>       0.63340146       0.44553577       0.52320466 </v>
    <v>       0.80424059       0.36047140       0.52309626 </v>
    <v>       0.52781979       0.06837291       0.52199975 </v>
    <v>       0.54903766       0.02279472       0.54880179 </v>
    <v>       0.61202166       0.04600211       0.59170320 </v>
    <v>       0.53303653       0.46619709       0.52327739 </v>
    <v>       0.46556742       0.44352319       0.54908265 </v>
    <v>       0.42553706       0.37932259       0.59048687 </v>
    <v>       0.92500801       0.46105949       0.52134272 </v>
    <v>       0.97056086       0.52853066       0.54684936 </v>
    <v>       0.94758037       0.56889641       0.58917805 </v>
    <v>       0.37927939       0.73527637       0.48939032 </v>
    <v>       0.43773711       0.80909520       0.49504416 </v>
    <v>       0.60854207       0.26217059       0.52908957 </v>
    <v>       0.54850734       0.18937222       0.52270129 </v>
    <v>       0.43949003       0.97617769       0.46728721 </v>
    <v>       0.45864208       0.93019162       0.49629647 </v>
    <v>       0.52937132       0.55572211       0.47087427 </v>
    <v>       0.46317526       0.53466797       0.49842757 </v>
    <v>       0.01667157       0.46457176       0.46605309 </v>
    <v>       0.06268804       0.53041599       0.49381205 </v>
    <v>       0.51377273       0.95461044       0.53612185 </v>
    <v>       0.56549465       0.13805937       0.53679529 </v>
    <v>       0.43218333       0.47836489       0.53676757 </v>
    <v>       0.56512374       0.42846377       0.53726322 </v>
    <v>       0.03850461       0.56163515       0.53322472 </v>
    <v>       0.85558333       0.42881667       0.53702798 </v>
    <v>       0.47311585       0.04361974       0.48005418 </v>
    <v>       0.41871592       0.85891670       0.48429337 </v>
    <v>       0.56357042       0.52243267       0.48317834 </v>
    <v>       0.43121261       0.57399540       0.48647492 </v>
    <v>       0.94946642       0.43062408       0.47968963 </v>
    <v>       0.13379647       0.56191938       0.48107782 </v>
    <v>       0.49712608       0.82278486       0.50907307 </v>
    <v>       0.31686217       0.49589842       0.51289702 </v>
    <v>       0.17043269       0.67639461       0.50716602 </v>
    <v>       0.49049742       0.17723532       0.50589684 </v>
    <v>       0.67944021       0.50368386       0.50675059 </v>
    <v>       0.81631081       0.31445035       0.50655609 </v>
    <v>       0.65050447       0.10683468       0.60843755 </v>
    <v>       0.62327301       0.99447699       0.61014641 </v>
    <v>       0.44797198       0.34070521       0.60632175 </v>
    <v>       0.36239508       0.36709753       0.60862946 </v>
    <v>       0.88694166       0.54657981       0.60640680 </v>
    <v>       0.99908666       0.63216583       0.60647268 </v>
    <v>       0.29079386       0.75307091       0.49110406 </v>
    <v>       0.45334839       0.70187986       0.49510805 </v>
    <v>       0.23937146       0.53913780       0.49360172 </v>
    <v>       0.69296753       0.23869974       0.52647938 </v>
    <v>       0.53790609       0.30065691       0.52651900 </v>
    <v>       0.75505443       0.45595953       0.52677733 </v>
    <v>       0.58532655       0.95157872       0.58915513 </v>
    <v>       0.60913861       0.15035445       0.56472437 </v>
    <v>       0.35735475       0.40534136       0.58851668 </v>
    <v>       0.53341778       0.38404368       0.56412323 </v>
    <v>       0.04181543       0.63699749       0.58528503 </v>
    <v>       0.84332246       0.46050252       0.56445196 </v>
    <v>       0.39580379       0.95709720       0.43227145 </v>
    <v>       0.37103217       0.84259450       0.46439245 </v>
    <v>       0.55461314       0.60081432       0.43749381 </v>
    <v>       0.46228703       0.62164105       0.46627093 </v>
    <v>       0.03549713       0.43943046       0.43141233 </v>
    <v>       0.15014005       0.53043549       0.46150491 </v>
   </varray>
  </structure>
  <varray name="forces" >
   <v>       0.00113925      -0.00091512       0.00306963 </v>
   <v>       0.00344489      -0.00062175       0.00410408 </v>
   <v>       0.00162625      -0.00251314       0.00041352 </v>
   <v>       0.00195210       0.00031241       0.00017191 </v>
   <v>       0.00190272      -0.00582591       0.00203522 </v>
   <v>       0.00041247      -0.00048263       0.00259934 </v>
   <v>      -0.00155741       0.00310528      -0.00137832 </v>
   <v>      -0.00178037      -0.00010550      -0.00165425 </v>
   <v>      -0.00127173       0.00148872      -0.00252331 </v>
   <v>      -0.00269140       0.00272095       0.00062268 </v>
   <v>      -0.00296937      -0.00229105      -0.00110886 </v>
   <v>       0.00095400      -0.00094701      -0.00071954 </v>
   <v>      -0.00057474      -0.00052938       0.00172298 </v>
   <v>       0.00439172       0.00376020       0.00235253 </v>
   <v>       0.00007711       0.00095845       0.00066846 </v>
   <v>       0.00055629      -0.00408000       0.00023052 </v>
   <v>       0.00232092       0.00496826       0.00185532 </v>
   <v>      -0.00203101       0.00371720      -0.00230956 </v>
   <v>       0.00007369      -0.00540235       0.00156321 </v>
   <v>      -0.00159643      -0.00405949      -0.00381487 </v>
   <v>      -0.00214777      -0.00183557       0.00271445 </v>
   <v>       0.00188558       0.00106614      -0.00355119 </v>
   <v>       0.00375299      -0.00149254      -0.00357459 </v>
   <v>      -0.00041055      -0.00131539       0.00291581 </v>
   <v>       0.00662767       0.00222354       0.00027876 </v>
   <v>      -0.00175066       0.00076004       0.00011335 </v>
   <v>       0.00020568      -0.00024303       0.00121785 </v>
   <v>       0.00141807      -0.00044836       0.00063301 </v>
   <v>       0.00237395       0.00643969       0.00033567 </v>
   <v>      -0.00031428       0.00180071      -0.00128598 </v>
   <v>      -0.00190424      -0.00097745       0.00248465 </v>
   <v>      -0.00165228      -0.00418301      -0.00230886 </v>
   <v>       0.00324071       0.00218480      -0.00265994 </v>
   <v>       0.00134713      -0.00256797      -0.00369318 </v>
   <v>       0.00285019       0.00357632      -0.00196402 </v>
   <v>      -0.00031293      -0.00236064       0.00230425 </v>
   <v>       0.00341324      -0.00142823      -0.00221721 </v>
   <v>      -0.00334922      -0.00067436       0.00227568 </v>
   <v>      -0.00431731       0.00145224      -0.00020332 </v>
   <v>      -0.00275524      -0.00237808      -0.00137285 </v>
   <v>      -0.00505196       0.00429520       0.00237106 </v>
   <v>       0.00047157       0.00041330      -0.00170111 </v>
   <v>       0.00037053       0.00312206      -0.00051932 </v>
   <v>      -0.00601874       0.00188770       0.00679130 </v>
   <v>       0.00369037      -0.00290358       0.00045576 </v>
   <v>      -0.00669513      -0.00101510      -0.00125138 </v>
   <v>      -0.00170454       0.00429327      -0.00013113 </v>
   <v>      -0.00318422      -0.00191979      -0.00238269 </v>
   <v>      -0.00096426      -0.00060579      -0.00158107 </v>
   <v>       0.00227932       0.00197735      -0.00647932 </v>
   <v>       0.00060166      -0.00046555       0.00111233 </v>
   <v>       0.00060713       0.00664951      -0.00066111 </v>
   <v>      -0.00146187       0.00232838       0.00055627 </v>
   <v>      -0.00001149      -0.00404620      -0.00351128 </v>
   <v>      -0.00229698       0.00091036      -0.00324238 </v>
   <v>      -0.00377686       0.00238755       0.00095606 </v>
   <v>      -0.00112925      -0.00169317      -0.00133876 </v>
   <v>      -0.00153741       0.00099021       0.00254190 </v>
   <v>      -0.00046028       0.00364682       0.00197423 </v>
   <v>      -0.00088269       0.00205653       0.00127823 </v>
   <v>       0.00250337      -0.00291098       0.00000878 </v>
   <v>       0.00349004       0.00073146      -0.00188985 </v>
   <v>       0.00141211      -0.00056988      -0.00054262 </v>
   <v>       0.00193013      -0.00341554       0.00225341 </v>
   <v>      -0.00091285      -0.00029387      -0.00109595 </v>
   <v>       0.00061618      -0.00215569      -0.00070754 </v>
   <v>       0.00116335      -0.00271528       0.00156558 </v>
   <v>      -0.00015652       0.00005861       0.00021721 </v>
   <v>       0.00241133      -0.00229934      -0.00258345 </v>
   <v>      -0.00292588      -0.00069208       0.00081031 </v>
   <v>       0.00391664      -0.00041366       0.00609696 </v>
   <v>       0.00163817       0.00007792       0.00080871 </v>
   <v>       0.00028188      -0.00236203       0.00145651 </v>
   <v>       0.00114510       0.00094960      -0.00235891 </v>
   <v>      -0.00193764       0.00084468       0.00038026 </v>
  </varray>
  <varray name="stress" >
   <v>       0.28055312       0.04588876      -0.01126132 </v>
   <v>       0.04588876       0.31942028      -0.00066244 </v>
   <v>      -0.01126132      -0.00066244      -0.25409464 </v>
  </varray>
  <energy>
   <i name="e_fr_energy">   -545.82610855 </i>
   <i name="e_wo_entrp">   -545.82610855 </i>
   <i name="e_0_energy">     -0.00000000 </i>
  </energy>
  <time name="totalsc"> 1934.17 1956.57</time>
  <eigenvalues>
   <array>
    <dimension dim="1">band</dimension>
    <dimension dim="2">kpoint</dimension>
    <dimension dim="3">spin</dimension>
    <field>eigene</field>
    <field>occ</field>
    <set>
     <set comment="spin 1">
      <set comment="kpoint 1">
       <r>  -27.6098    1.0000 </r>
       <r>  -27.6044    1.0000 </r>
       <r>  -27.6021    1.0000 </r>
       <r>  -26.6629    1.0000 </r>
       <r>  -26.6485    1.0000 </r>
       <r>  -26.6442    1.0000 </r>
       <r>  -26.1210    1.0000 </r>
       <r>  -26.1094    1.0000 </r>
       <r>  -26.1057    1.0000 </r>
       <r>  -25.5365    1.0000 </r>
       <r>  -25.5342    1.0000 </r>
       <r>  -25.5326    1.0000 </r>
       <r>  -25.3969    1.0000 </r>
       <r>  -25.3963    1.0000 </r>
       <r>  -25.3926    1.0000 </r>
       <r>  -24.3009    1.0000 </r>
       <r>  -24.2992    1.0000 </r>
       <r>  -24.2936    1.0000 </r>
       <r>  -23.4637    1.0000 </r>
       <r>  -23.4540    1.0000 </r>
       <r>  -23.4504    1.0000 </r>
       <r>  -22.8813    1.0000 </r>
       <r>  -22.8694    1.0000 </r>
       <r>  -22.8663    1.0000 </r>
       <r>  -22.4150    1.0000 </r>
       <r>  -21.7418    1.0000 </r>
       <r>  -20.2459    1.0000 </r>
       <r>  -20.2417    1.0000 </r>
       <r>  -19.7142    1.0000 </r>
       <r>  -19.6581    1.0000 </r>
       <r>  -19.6563    1.0000 </r>
       <r>  -19.0577    1.0000 </r>
       <r>  -19.0562    1.0000 </r>
       <r>  -17.8340    1.0000 </r>
       <r>  -17.7443    1.0000 </r>
       <r>  -17.7390    1.0000 </r>
       <r>  -17.5298    1.0000 </r>
       <r>  -17.4434    1.0000 </r>
       <r>  -17.4406    1.0000 </r>
       <r>  -16.5936    1.0000 </r>
       <r>  -16.5904    1.0000 </r>
       <r>  -16.2472    1.0000 </r>
       <r>  -15.7996    1.0000 </r>
       <r>  -15.7975    1.0000 </r>
       <r>  -15.3304    1.0000 </r>
       <r>  -15.3300    1.0000 </r>
       <r>  -15.2764    1.0000 </r>
       <r>  -15.2015    1.0000 </r>
       <r>  -15.1984    1.0000 </r>
       <r>  -15.1464    1.0000 </r>
       <r>  -14.9722    1.0000 </r>
       <r>  -14.5886    1.0000 </r>
       <r>  -14.5826    1.0000 </r>
       <r>  -14.1683    1.0000 </r>
       <r>  -14.1525    1.0000 </r>
       <r>  -14.1498    1.0000 </r>
       <r>  -13.9642    1.0000 </r>
       <r>  -13.8271    1.0000 </r>
       <r>  -13.8218    1.0000 </r>
       <r>  -13.2447    1.0000 </r>
       <r>  -13.0570    1.0000 </r>
       <r>  -12.8883    1.0000 </r>
       <r>  -12.8873    1.0000 </r>
       <r>  -12.8152    1.0000 </r>
       <r>  -12.7796    1.0000 </r>
       <r>  -12.7742    1.0000 </r>
       <r>  -12.5140    1.0000 </r>
       <r>  -12.0812    1.0000 </r>
       <r>  -12.0428    1.0000 </r>
       <r>  -12.0309    1.0000 </r>
       <r>  -11.9080    1.0000 </r>
       <r>  -11.8149    1.0000 </r>
       <r>  -11.8114    1.0000 </r>
       <r>  -11.7933    1.0000 </r>
       <r>  -11.4224    1.0000 </r>
       <r>  -11.4150    1.0000 </r>
       <r>  -11.4114    1.0000 </r>
       <r>  -11.2701    1.0000 </r>
       <r>  -11.1182    1.0000 </r>
       <r>  -11.1114    1.0000 </r>
       <r>  -11.0337    1.0000 </r>
       <r>  -11.0320    1.0000 </r>
       <r>  -11.0196    1.0000 </r>
       <r>  -10.7683    1.0000 </r>
       <r>  -10.7655    1.0000 </r>
       <r>  -10.7446    1.0000 </r>
       <r>  -10.6665    1.0000 </r>
       <r>  -10.6641    1.0000 </r>
       <r>  -10.6381    1.0000 </r>
       <r>  -10.5699    1.0000 </r>
       <r>  -10.5681    1.0000 </r>
       <r>  -10.4990    1.0000 </r>
       <r>  -10.4101    1.0000 </r>
       <r>  -10.1915    1.0000 </r>
       <r>  -10.1891    1.0000 </r>
       <r>   -9.9250    1.0000 </r>
       <r>   -9.9240    1.0000 </r>
       <r>   -9.9042    1.0000 </r>
       <r>   -9.7721    1.0000 </r>
       <r>   -9.5022    1.0000 </r>
       <r>   -9.4960    1.0000 </r>
       <r>   -9.4133    1.0000 </r>
       <r>   -9.3976    1.0000 </r>
       <r>   -9.3954    1.0000 </r>
       <r>   -9.1507    1.0000 </r>
       <r>   -9.0747    1.0000 </r>
       <r>   -9.0708    1.0000 </r>
       <r>   -8.7970    1.0000 </r>
       <r>   -8.7952    1.0000 </r>
       <r>   -8.5915    1.0000 </r>
       <r>   -8.2681    1.0000 </r>
       <r>   -8.2630    1.0000 </r>
       <r>   -8.2055    1.0000 </r>
       <r>   -7.8552    1.0000 </r>
       <r>   -7.8495    1.0000 </r>
       <r>   -7.8466    1.0000 </r>
       <r>   -7.6698    1.0000 </r>
       <r>   -7.6666    1.0000 </r>
       <r>   -7.6480    1.0000 </r>
       <r>   -7.4496    1.0000 </r>
       <r>   -7.4471    1.0000 </r>
       <r>   -7.3616    1.0000 </r>
       <r>   -7.2696    1.0000 </r>
       <r>   -7.2628    1.0000 </r>
       <r>   -6.9425    1.0000 </r>
       <r>   -6.9416    1.0000 </r>
       <r>   -6.9305    1.0000 </r>
       <r>   -6.6745    1.0000 </r>
       <r>   -6.6535    1.0000 </r>
       <r>   -6.6514    1.0000 </r>
       <r>   -6.5683    1.0000 </r>
       <r>   -6.5677    1.0000 </r>
       <r>   -6.3744    1.0000 </r>
       <r>   -6.2061    1.0000 </r>
       <r>   -6.2020    1.0000 </r>
       <r>   -5.7860    1.0000 </r>
       <r>   -5.7708    1.0000 </r>
       <r>   -5.7696    1.0000 </r>
       <r>   -5.6653    1.0000 </r>
       <r>   -5.5037    1.0000 </r>
       <r>   -5.5017    1.0000 </r>
       <r>   -3.2481    0.0000 </r>
       <r>   -3.2441    0.0000 </r>
       <r>   -3.1572    0.0000 </r>
       <r>   -3.1093    0.0000 </r>
       <r>   -3.1058    0.0000 </r>
       <r>   -2.6022    0.0000 </r>
       <r>   -2.5975    0.0000 </r>
       <r>   -2.5748    0.0000 </r>
       <r>   -1.6599    0.0000 </r>
       <r>   -1.6430    0.0000 </r>
       <r>   -1.6410    0.0000 </r>
       <r>   -0.9250    0.0000 </r>
       <r>   -0.7043    0.0000 </r>
       <r>   -0.6060    0.0000 </r>
       <r>   -0.5980    0.0000 </r>
       <r>   -0.4159    0.0000 </r>
       <r>   -0.4077    0.0000 </r>
       <r>   -0.2559    0.0000 </r>
       <r>   -0.1027    0.0000 </r>
       <r>    0.0523    0.0000 </r>
       <r>    0.0556    0.0000 </r>
       <r>    0.1725    0.0000 </r>
       <r>    0.2978    0.0000 </r>
       <r>    0.3008    0.0000 </r>
       <r>    0.3140    0.0000 </r>
       <r>    0.5470    0.0000 </r>
       <r>    0.5509    0.0000 </r>
       <r>    0.5705    0.0000 </r>
       <r>    0.6650    0.0000 </r>
       <r>    0.7175    0.0000 </r>
       <r>    0.7242    0.0000 </r>
       <r>    0.7390    0.0000 </r>
       <r>    0.8010    0.0000 </r>
       <r>    0.8067    0.0000 </r>
       <r>    0.8376    0.0000 </r>
       <r>    0.8408    0.0000 </r>
       <r>    0.9113    0.0000 </r>
       <r>    0.9328    0.0000 </r>
       <r>    0.9381    0.0000 </r>
       <r>    0.9837    0.0000 </r>
       <r>    1.0605    0.0000 </r>
       <r>    1.0659    0.0000 </r>
       <r>    1.0784    0.0000 </r>
       <r>    1.1244    0.0000 </r>
       <r>    1.1654    0.0000 </r>
       <r>    1.1692    0.0000 </r>
       <r>    1.1761    0.0000 </r>
       <r>    1.2879    0.0000 </r>
       <r>    1.3028    0.0000 </r>
       <r>    1.3092    0.0000 </r>
       <r>    1.3929    0.0000 </r>
      </set>
      <set comment="kpoint 2">
       <r>  -27.6098    1.0000 </r>
       <r>  -27.6044    1.0000 </r>
       <r>  -27.6021    1.0000 </r>
       <r>  -26.6629    1.0000 </r>
       <r>  -26.6485    1.0000 </r>
       <r>  -26.6442    1.0000 </r>
       <r>  -26.1210    1.0000 </r>
       <r>  -26.1094    1.0000 </r>
       <r>  -26.1057    1.0000 </r>
       <r>  -25.5365    1.0000 </r>
       <r>  -25.5342    1.0000 </r>
       <r>  -25.5326    1.0000 </r>
       <r>  -25.3969    1.0000 </r>
       <r>  -25.3963    1.0000 </r>
       <r>  -25.3926    1.0000 </r>
       <r>  -24.3009    1.0000 </r>
       <r>  -24.2992    1.0000 </r>
       <r>  -24.2936    1.0000 </r>
       <r>  -23.4637    1.0000 </r>
       <r>  -23.4540    1.0000 </r>
       <r>  -23.4504    1.0000 </r>
       <r>  -22.8813    1.0000 </r>
       <r>  -22.8695    1.0000 </r>
       <r>  -22.8663    1.0000 </r>
       <r>  -22.4150    1.0000 </r>
       <r>  -21.7418    1.0000 </r>
       <r>  -20.2458    1.0000 </r>
       <r>  -20.2416    1.0000 </r>
       <r>  -19.7183    1.0000 </r>
       <r>  -19.6569    1.0000 </r>
       <r>  -19.6531    1.0000 </r>
       <r>  -19.0580    1.0000 </r>
       <r>  -19.0563    1.0000 </r>
       <r>  -17.8338    1.0000 </r>
       <r>  -17.7444    1.0000 </r>
       <r>  -17.7391    1.0000 </r>
       <r>  -17.5298    1.0000 </r>
       <r>  -17.4434    1.0000 </r>
       <r>  -17.4406    1.0000 </r>
       <r>  -16.5936    1.0000 </r>
       <r>  -16.5904    1.0000 </r>
       <r>  -16.2477    1.0000 </r>
       <r>  -15.7991    1.0000 </r>
       <r>  -15.7971    1.0000 </r>
       <r>  -15.3319    1.0000 </r>
       <r>  -15.3300    1.0000 </r>
       <r>  -15.2757    1.0000 </r>
       <r>  -15.2015    1.0000 </r>
       <r>  -15.1985    1.0000 </r>
       <r>  -15.1458    1.0000 </r>
       <r>  -14.9723    1.0000 </r>
       <r>  -14.5886    1.0000 </r>
       <r>  -14.5827    1.0000 </r>
       <r>  -14.1689    1.0000 </r>
       <r>  -14.1522    1.0000 </r>
       <r>  -14.1496    1.0000 </r>
       <r>  -13.9645    1.0000 </r>
       <r>  -13.8268    1.0000 </r>
       <r>  -13.8217    1.0000 </r>
       <r>  -13.2447    1.0000 </r>
       <r>  -13.0568    1.0000 </r>
       <r>  -12.8884    1.0000 </r>
       <r>  -12.8873    1.0000 </r>
       <r>  -12.8155    1.0000 </r>
       <r>  -12.7796    1.0000 </r>
       <r>  -12.7743    1.0000 </r>
       <r>  -12.5138    1.0000 </r>
       <r>  -12.0812    1.0000 </r>
       <r>  -12.0428    1.0000 </r>
       <r>  -12.0309    1.0000 </r>
       <r>  -11.9080    1.0000 </r>
       <r>  -11.8149    1.0000 </r>
       <r>  -11.8113    1.0000 </r>
       <r>  -11.7934    1.0000 </r>
       <r>  -11.4224    1.0000 </r>
       <r>  -11.4154    1.0000 </r>
       <r>  -11.4109    1.0000 </r>
       <r>  -11.2700    1.0000 </r>
       <r>  -11.1182    1.0000 </r>
       <r>  -11.1115    1.0000 </r>
       <r>  -11.0337    1.0000 </r>
       <r>  -11.0320    1.0000 </r>
       <r>  -11.0196    1.0000 </r>
       <r>  -10.7683    1.0000 </r>
       <r>  -10.7654    1.0000 </r>
       <r>  -10.7447    1.0000 </r>
       <r>  -10.6665    1.0000 </r>
       <r>  -10.6641    1.0000 </r>
       <r>  -10.6381    1.0000 </r>
       <r>  -10.5699    1.0000 </r>
       <r>  -10.5681    1.0000 </r>
       <r>  -10.4990    1.0000 </r>
       <r>  -10.4100    1.0000 </r>
       <r>  -10.1919    1.0000 </r>
       <r>  -10.1891    1.0000 </r>
       <r>   -9.9253    1.0000 </r>
       <r>   -9.9243    1.0000 </r>
       <r>   -9.9040    1.0000 </r>
       <r>   -9.7710    1.0000 </r>
       <r>   -9.5022    1.0000 </r>
       <r>   -9.4960    1.0000 </r>
       <r>   -9.4134    1.0000 </r>
       <r>   -9.3976    1.0000 </r>
       <r>   -9.3954    1.0000 </r>
       <r>   -9.1540    1.0000 </r>
       <r>   -9.0725    1.0000 </r>
       <r>   -9.0699    1.0000 </r>
       <r>   -8.7970    1.0000 </r>
       <r>   -8.7952    1.0000 </r>
       <r>   -8.5917    1.0000 </r>
       <r>   -8.2681    1.0000 </r>
       <r>   -8.2630    1.0000 </r>
       <r>   -8.2056    1.0000 </r>
       <r>   -7.8552    1.0000 </r>
       <r>   -7.8494    1.0000 </r>
       <r>   -7.8466    1.0000 </r>
       <r>   -7.6698    1.0000 </r>
       <r>   -7.6665    1.0000 </r>
       <r>   -7.6480    1.0000 </r>
       <r>   -7.4495    1.0000 </r>
       <r>   -7.4471    1.0000 </r>
       <r>   -7.3618    1.0000 </r>
       <r>   -7.2696    1.0000 </r>
       <r>   -7.2628    1.0000 </r>
       <r>   -6.9426    1.0000 </r>
       <r>   -6.9417    1.0000 </r>
       <r>   -6.9304    1.0000 </r>
       <r>   -6.6744    1.0000 </r>
       <r>   -6.6535    1.0000 </r>
       <r>   -6.6514    1.0000 </r>
       <r>   -6.5683    1.0000 </r>
       <r>   -6.5678    1.0000 </r>
       <r>   -6.3741    1.0000 </r>
       <r>   -6.2063    1.0000 </r>
       <r>   -6.2021    1.0000 </r>
       <r>   -5.7860    1.0000 </r>
       <r>   -5.7708    1.0000 </r>
       <r>   -5.7696    1.0000 </r>
       <r>   -5.6652    1.0000 </r>
       <r>   -5.5037    1.0000 </r>
       <r>   -5.5018    1.0000 </r>
       <r>   -3.2481    0.0000 </r>
       <r>   -3.2441    0.0000 </r>
       <r>   -3.1572    0.0000 </r>
       <r>   -3.1093    0.0000 </r>
       <r>   -3.1057    0.0000 </r>
       <r>   -2.6096    0.0000 </r>
       <r>   -2.5981    0.0000 </r>
       <r>   -2.5663    0.0000 </r>
       <r>   -1.6776    0.0000 </r>
       <r>   -1.6411    0.0000 </r>
       <r>   -1.6253    0.0000 </r>
       <r>   -0.9250    0.0000 </r>
       <r>   -0.7052    0.0000 </r>
       <r>   -0.6056    0.0000 </r>
       <r>   -0.5980    0.0000 </r>
       <r>   -0.4159    0.0000 </r>
       <r>   -0.4076    0.0000 </r>
       <r>   -0.2559    0.0000 </r>
       <r>   -0.1026    0.0000 </r>
       <r>    0.0522    0.0000 </r>
       <r>    0.0555    0.0000 </r>
       <r>    0.1730    0.0000 </r>
       <r>    0.2978    0.0000 </r>
       <r>    0.3008    0.0000 </r>
       <r>    0.3140    0.0000 </r>
       <r>    0.5468    0.0000 </r>
       <r>    0.5506    0.0000 </r>
       <r>    0.5708    0.0000 </r>
       <r>    0.6654    0.0000 </r>
       <r>    0.7160    0.0000 </r>
       <r>    0.7238    0.0000 </r>
       <r>    0.7396    0.0000 </r>
       <r>    0.8006    0.0000 </r>
       <r>    0.8065    0.0000 </r>
       <r>    0.8376    0.0000 </r>
       <r>    0.8411    0.0000 </r>
       <r>    0.9116    0.0000 </r>
       <r>    0.9326    0.0000 </r>
       <r>    0.9381    0.0000 </r>
       <r>    0.9852    0.0000 </r>
       <r>    1.0571    0.0000 </r>
       <r>    1.0647    0.0000 </r>
       <r>    1.0819    0.0000 </r>
       <r>    1.1247    0.0000 </r>
       <r>    1.1662    0.0000 </r>
       <r>    1.1694    0.0000 </r>
       <r>    1.1769    0.0000 </r>
       <r>    1.2884    0.0000 </r>
       <r>    1.3010    0.0000 </r>
       <r>    1.3089    0.0000 </r>
       <r>    1.3947    0.0000 </r>
      </set>
      <set comment="kpoint 3">
       <r>  -27.6098    1.0000 </r>
       <r>  -27.6044    1.0000 </r>
       <r>  -27.6021    1.0000 </r>
       <r>  -26.6629    1.0000 </r>
       <r>  -26.6485    1.0000 </r>
       <r>  -26.6442    1.0000 </r>
       <r>  -26.1210    1.0000 </r>
       <r>  -26.1094    1.0000 </r>
       <r>  -26.1057    1.0000 </r>
       <r>  -25.5365    1.0000 </r>
       <r>  -25.5342    1.0000 </r>
       <r>  -25.5326    1.0000 </r>
       <r>  -25.3969    1.0000 </r>
       <r>  -25.3963    1.0000 </r>
       <r>  -25.3926    1.0000 </r>
       <r>  -24.3009    1.0000 </r>
       <r>  -24.2992    1.0000 </r>
       <r>  -24.2936    1.0000 </r>
       <r>  -23.4637    1.0000 </r>
       <r>  -23.4540    1.0000 </r>
       <r>  -23.4504    1.0000 </r>
       <r>  -22.8812    1.0000 </r>
       <r>  -22.8695    1.0000 </r>
       <r>  -22.8663    1.0000 </r>
       <r>  -22.4150    1.0000 </r>
       <r>  -21.7419    1.0000 </r>
       <r>  -20.2457    1.0000 </r>
       <r>  -20.2411    1.0000 </r>
       <r>  -19.7282    1.0000 </r>
       <r>  -19.6567    1.0000 </r>
       <r>  -19.6428    1.0000 </r>
       <r>  -19.0592    1.0000 </r>
       <r>  -19.0564    1.0000 </r>
       <r>  -17.8332    1.0000 </r>
       <r>  -17.7445    1.0000 </r>
       <r>  -17.7392    1.0000 </r>
       <r>  -17.5296    1.0000 </r>
       <r>  -17.4435    1.0000 </r>
       <r>  -17.4407    1.0000 </r>
       <r>  -16.5936    1.0000 </r>
       <r>  -16.5902    1.0000 </r>
       <r>  -16.2491    1.0000 </r>
       <r>  -15.7986    1.0000 </r>
       <r>  -15.7952    1.0000 </r>
       <r>  -15.3365    1.0000 </r>
       <r>  -15.3300    1.0000 </r>
       <r>  -15.2738    1.0000 </r>
       <r>  -15.2016    1.0000 </r>
       <r>  -15.1986    1.0000 </r>
       <r>  -15.1438    1.0000 </r>
       <r>  -14.9726    1.0000 </r>
       <r>  -14.5886    1.0000 </r>
       <r>  -14.5827    1.0000 </r>
       <r>  -14.1705    1.0000 </r>
       <r>  -14.1516    1.0000 </r>
       <r>  -14.1487    1.0000 </r>
       <r>  -13.9654    1.0000 </r>
       <r>  -13.8260    1.0000 </r>
       <r>  -13.8216    1.0000 </r>
       <r>  -13.2448    1.0000 </r>
       <r>  -13.0560    1.0000 </r>
       <r>  -12.8885    1.0000 </r>
       <r>  -12.8873    1.0000 </r>
       <r>  -12.8163    1.0000 </r>
       <r>  -12.7798    1.0000 </r>
       <r>  -12.7745    1.0000 </r>
       <r>  -12.5132    1.0000 </r>
       <r>  -12.0812    1.0000 </r>
       <r>  -12.0428    1.0000 </r>
       <r>  -12.0310    1.0000 </r>
       <r>  -11.9080    1.0000 </r>
       <r>  -11.8149    1.0000 </r>
       <r>  -11.8113    1.0000 </r>
       <r>  -11.7935    1.0000 </r>
       <r>  -11.4227    1.0000 </r>
       <r>  -11.4163    1.0000 </r>
       <r>  -11.4097    1.0000 </r>
       <r>  -11.2697    1.0000 </r>
       <r>  -11.1183    1.0000 </r>
       <r>  -11.1118    1.0000 </r>
       <r>  -11.0338    1.0000 </r>
       <r>  -11.0320    1.0000 </r>
       <r>  -11.0194    1.0000 </r>
       <r>  -10.7683    1.0000 </r>
       <r>  -10.7653    1.0000 </r>
       <r>  -10.7448    1.0000 </r>
       <r>  -10.6663    1.0000 </r>
       <r>  -10.6641    1.0000 </r>
       <r>  -10.6381    1.0000 </r>
       <r>  -10.5697    1.0000 </r>
       <r>  -10.5680    1.0000 </r>
       <r>  -10.4989    1.0000 </r>
       <r>  -10.4098    1.0000 </r>
       <r>  -10.1931    1.0000 </r>
       <r>  -10.1891    1.0000 </r>
       <r>   -9.9267    1.0000 </r>
       <r>   -9.9245    1.0000 </r>
       <r>   -9.9036    1.0000 </r>
       <r>   -9.7679    1.0000 </r>
       <r>   -9.5021    1.0000 </r>
       <r>   -9.4960    1.0000 </r>
       <r>   -9.4135    1.0000 </r>
       <r>   -9.3976    1.0000 </r>
       <r>   -9.3953    1.0000 </r>
       <r>   -9.1627    1.0000 </r>
       <r>   -9.0715    1.0000 </r>
       <r>   -9.0631    1.0000 </r>
       <r>   -8.7969    1.0000 </r>
       <r>   -8.7952    1.0000 </r>
       <r>   -8.5920    1.0000 </r>
       <r>   -8.2680    1.0000 </r>
       <r>   -8.2629    1.0000 </r>
       <r>   -8.2060    1.0000 </r>
       <r>   -7.8553    1.0000 </r>
       <r>   -7.8494    1.0000 </r>
       <r>   -7.8466    1.0000 </r>
       <r>   -7.6697    1.0000 </r>
       <r>   -7.6665    1.0000 </r>
       <r>   -7.6480    1.0000 </r>
       <r>   -7.4492    1.0000 </r>
       <r>   -7.4471    1.0000 </r>
       <r>   -7.3623    1.0000 </r>
       <r>   -7.2694    1.0000 </r>
       <r>   -7.2627    1.0000 </r>
       <r>   -6.9428    1.0000 </r>
       <r>   -6.9420    1.0000 </r>
       <r>   -6.9299    1.0000 </r>
       <r>   -6.6744    1.0000 </r>
       <r>   -6.6534    1.0000 </r>
       <r>   -6.6513    1.0000 </r>
       <r>   -6.5687    1.0000 </r>
       <r>   -6.5680    1.0000 </r>
       <r>   -6.3733    1.0000 </r>
       <r>   -6.2067    1.0000 </r>
       <r>   -6.2024    1.0000 </r>
       <r>   -5.7859    1.0000 </r>
       <r>   -5.7708    1.0000 </r>
       <r>   -5.7695    1.0000 </r>
       <r>   -5.6650    1.0000 </r>
       <r>   -5.5039    1.0000 </r>
       <r>   -5.5018    1.0000 </r>
       <r>   -3.2481    0.0000 </r>
       <r>   -3.2440    0.0000 </r>
       <r>   -3.1572    0.0000 </r>
       <r>   -3.1093    0.0000 </r>
       <r>   -3.1055    0.0000 </r>
       <r>   -2.6235    0.0000 </r>
       <r>   -2.5983    0.0000 </r>
       <r>   -2.5508    0.0000 </r>
       <r>   -1.7019    0.0000 </r>
       <r>   -1.6411    0.0000 </r>
       <r>   -1.6017    0.0000 </r>
       <r>   -0.9249    0.0000 </r>
       <r>   -0.7080    0.0000 </r>
       <r>   -0.6047    0.0000 </r>
       <r>   -0.5980    0.0000 </r>
       <r>   -0.4159    0.0000 </r>
       <r>   -0.4073    0.0000 </r>
       <r>   -0.2558    0.0000 </r>
       <r>   -0.1023    0.0000 </r>
       <r>    0.0518    0.0000 </r>
       <r>    0.0551    0.0000 </r>
       <r>    0.1745    0.0000 </r>
       <r>    0.2979    0.0000 </r>
       <r>    0.3008    0.0000 </r>
       <r>    0.3142    0.0000 </r>
       <r>    0.5460    0.0000 </r>
       <r>    0.5498    0.0000 </r>
       <r>    0.5716    0.0000 </r>
       <r>    0.6667    0.0000 </r>
       <r>    0.7121    0.0000 </r>
       <r>    0.7224    0.0000 </r>
       <r>    0.7409    0.0000 </r>
       <r>    0.7995    0.0000 </r>
       <r>    0.8060    0.0000 </r>
       <r>    0.8378    0.0000 </r>
       <r>    0.8419    0.0000 </r>
       <r>    0.9121    0.0000 </r>
       <r>    0.9323    0.0000 </r>
       <r>    0.9384    0.0000 </r>
       <r>    0.9891    0.0000 </r>
       <r>    1.0507    0.0000 </r>
       <r>    1.0626    0.0000 </r>
       <r>    1.0876    0.0000 </r>
       <r>    1.1259    0.0000 </r>
       <r>    1.1681    0.0000 </r>
       <r>    1.1708    0.0000 </r>
       <r>    1.1792    0.0000 </r>
       <r>    1.2884    0.0000 </r>
       <r>    1.2971    0.0000 </r>
       <r>    1.3086    0.0000 </r>
       <r>    1.3990    0.0000 </r>
      </set>
      <set comment="kpoint 4">
       <r>  -27.6098    1.0000 </r>
       <r>  -27.6044    1.0000 </r>
       <r>  -27.6021    1.0000 </r>
       <r>  -26.6629    1.0000 </r>
       <r>  -26.6485    1.0000 </r>
       <r>  -26.6442    1.0000 </r>
       <r>  -26.1210    1.0000 </r>
       <r>  -26.1094    1.0000 </r>
       <r>  -26.1057    1.0000 </r>
       <r>  -25.5365    1.0000 </r>
       <r>  -25.5342    1.0000 </r>
       <r>  -25.5326    1.0000 </r>
       <r>  -25.3969    1.0000 </r>
       <r>  -25.3963    1.0000 </r>
       <r>  -25.3926    1.0000 </r>
       <r>  -24.3009    1.0000 </r>
       <r>  -24.2992    1.0000 </r>
       <r>  -24.2936    1.0000 </r>
       <r>  -23.4637    1.0000 </r>
       <r>  -23.4540    1.0000 </r>
       <r>  -23.4504    1.0000 </r>
       <r>  -22.8811    1.0000 </r>
       <r>  -22.8695    1.0000 </r>
       <r>  -22.8664    1.0000 </r>
       <r>  -22.4150    1.0000 </r>
       <r>  -21.7419    1.0000 </r>
       <r>  -20.2456    1.0000 </r>
       <r>  -20.2404    1.0000 </r>
       <r>  -19.7406    1.0000 </r>
       <r>  -19.6567    1.0000 </r>
       <r>  -19.6296    1.0000 </r>
       <r>  -19.0612    1.0000 </r>
       <r>  -19.0565    1.0000 </r>
       <r>  -17.8322    1.0000 </r>
       <r>  -17.7447    1.0000 </r>
       <r>  -17.7394    1.0000 </r>
       <r>  -17.5294    1.0000 </r>
       <r>  -17.4436    1.0000 </r>
       <r>  -17.4408    1.0000 </r>
       <r>  -16.5936    1.0000 </r>
       <r>  -16.5899    1.0000 </r>
       <r>  -16.2514    1.0000 </r>
       <r>  -15.7984    1.0000 </r>
       <r>  -15.7915    1.0000 </r>
       <r>  -15.3434    1.0000 </r>
       <r>  -15.3301    1.0000 </r>
       <r>  -15.2713    1.0000 </r>
       <r>  -15.2016    1.0000 </r>
       <r>  -15.1987    1.0000 </r>
       <r>  -15.1407    1.0000 </r>
       <r>  -14.9730    1.0000 </r>
       <r>  -14.5886    1.0000 </r>
       <r>  -14.5828    1.0000 </r>
       <r>  -14.1726    1.0000 </r>
       <r>  -14.1514    1.0000 </r>
       <r>  -14.1471    1.0000 </r>
       <r>  -13.9668    1.0000 </r>
       <r>  -13.8248    1.0000 </r>
       <r>  -13.8212    1.0000 </r>
       <r>  -13.2449    1.0000 </r>
       <r>  -13.0547    1.0000 </r>
       <r>  -12.8888    1.0000 </r>
       <r>  -12.8874    1.0000 </r>
       <r>  -12.8176    1.0000 </r>
       <r>  -12.7800    1.0000 </r>
       <r>  -12.7748    1.0000 </r>
       <r>  -12.5123    1.0000 </r>
       <r>  -12.0811    1.0000 </r>
       <r>  -12.0429    1.0000 </r>
       <r>  -12.0310    1.0000 </r>
       <r>  -11.9080    1.0000 </r>
       <r>  -11.8149    1.0000 </r>
       <r>  -11.8113    1.0000 </r>
       <r>  -11.7937    1.0000 </r>
       <r>  -11.4231    1.0000 </r>
       <r>  -11.4173    1.0000 </r>
       <r>  -11.4083    1.0000 </r>
       <r>  -11.2693    1.0000 </r>
       <r>  -11.1186    1.0000 </r>
       <r>  -11.1123    1.0000 </r>
       <r>  -11.0339    1.0000 </r>
       <r>  -11.0319    1.0000 </r>
       <r>  -11.0191    1.0000 </r>
       <r>  -10.7684    1.0000 </r>
       <r>  -10.7652    1.0000 </r>
       <r>  -10.7450    1.0000 </r>
       <r>  -10.6660    1.0000 </r>
       <r>  -10.6641    1.0000 </r>
       <r>  -10.6381    1.0000 </r>
       <r>  -10.5693    1.0000 </r>
       <r>  -10.5680    1.0000 </r>
       <r>  -10.4989    1.0000 </r>
       <r>  -10.4094    1.0000 </r>
       <r>  -10.1951    1.0000 </r>
       <r>  -10.1891    1.0000 </r>
       <r>   -9.9290    1.0000 </r>
       <r>   -9.9245    1.0000 </r>
       <r>   -9.9031    1.0000 </r>
       <r>   -9.7628    1.0000 </r>
       <r>   -9.5021    1.0000 </r>
       <r>   -9.4960    1.0000 </r>
       <r>   -9.4137    1.0000 </r>
       <r>   -9.3976    1.0000 </r>
       <r>   -9.3952    1.0000 </r>
       <r>   -9.1746    1.0000 </r>
       <r>   -9.0714    1.0000 </r>
       <r>   -9.0526    1.0000 </r>
       <r>   -8.7969    1.0000 </r>
       <r>   -8.7952    1.0000 </r>
       <r>   -8.5926    1.0000 </r>
       <r>   -8.2678    1.0000 </r>
       <r>   -8.2627    1.0000 </r>
       <r>   -8.2066    1.0000 </r>
       <r>   -7.8553    1.0000 </r>
       <r>   -7.8493    1.0000 </r>
       <r>   -7.8467    1.0000 </r>
       <r>   -7.6697    1.0000 </r>
       <r>   -7.6663    1.0000 </r>
       <r>   -7.6481    1.0000 </r>
       <r>   -7.4488    1.0000 </r>
       <r>   -7.4470    1.0000 </r>
       <r>   -7.3632    1.0000 </r>
       <r>   -7.2691    1.0000 </r>
       <r>   -7.2626    1.0000 </r>
       <r>   -6.9433    1.0000 </r>
       <r>   -6.9421    1.0000 </r>
       <r>   -6.9292    1.0000 </r>
       <r>   -6.6743    1.0000 </r>
       <r>   -6.6533    1.0000 </r>
       <r>   -6.6511    1.0000 </r>
       <r>   -6.5697    1.0000 </r>
       <r>   -6.5679    1.0000 </r>
       <r>   -6.3718    1.0000 </r>
       <r>   -6.2075    1.0000 </r>
       <r>   -6.2029    1.0000 </r>
       <r>   -5.7858    1.0000 </r>
       <r>   -5.7708    1.0000 </r>
       <r>   -5.7694    1.0000 </r>
       <r>   -5.6645    1.0000 </r>
       <r>   -5.5042    1.0000 </r>
       <r>   -5.5018    1.0000 </r>
       <r>   -3.2481    0.0000 </r>
       <r>   -3.2439    0.0000 </r>
       <r>   -3.1573    0.0000 </r>
       <r>   -3.1093    0.0000 </r>
       <r>   -3.1051    0.0000 </r>
       <r>   -2.6381    0.0000 </r>
       <r>   -2.5983    0.0000 </r>
       <r>   -2.5335    0.0000 </r>
       <r>   -1.7267    0.0000 </r>
       <r>   -1.6411    0.0000 </r>
       <r>   -1.5779    0.0000 </r>
       <r>   -0.9249    0.0000 </r>
       <r>   -0.7126    0.0000 </r>
       <r>   -0.6033    0.0000 </r>
       <r>   -0.5980    0.0000 </r>
       <r>   -0.4159    0.0000 </r>
       <r>   -0.4068    0.0000 </r>
       <r>   -0.2557    0.0000 </r>
       <r>   -0.1018    0.0000 </r>
       <r>    0.0509    0.0000 </r>
       <r>    0.0547    0.0000 </r>
       <r>    0.1770    0.0000 </r>
       <r>    0.2981    0.0000 </r>
       <r>    0.3007    0.0000 </r>
       <r>    0.3145    0.0000 </r>
       <r>    0.5446    0.0000 </r>
       <r>    0.5487    0.0000 </r>
       <r>    0.5727    0.0000 </r>
       <r>    0.6686    0.0000 </r>
       <r>    0.7062    0.0000 </r>
       <r>    0.7203    0.0000 </r>
       <r>    0.7425    0.0000 </r>
       <r>    0.7978    0.0000 </r>
       <r>    0.8051    0.0000 </r>
       <r>    0.8382    0.0000 </r>
       <r>    0.8432    0.0000 </r>
       <r>    0.9118    0.0000 </r>
       <r>    0.9327    0.0000 </r>
       <r>    0.9395    0.0000 </r>
       <r>    0.9931    0.0000 </r>
       <r>    1.0456    0.0000 </r>
       <r>    1.0599    0.0000 </r>
       <r>    1.0920    0.0000 </r>
       <r>    1.1284    0.0000 </r>
       <r>    1.1691    0.0000 </r>
       <r>    1.1745    0.0000 </r>
       <r>    1.1828    0.0000 </r>
       <r>    1.2843    0.0000 </r>
       <r>    1.2952    0.0000 </r>
       <r>    1.3102    0.0000 </r>
       <r>    1.4038    0.0000 </r>
      </set>
      <set comment="kpoint 5">
       <r>  -27.6098    1.0000 </r>
       <r>  -27.6044    1.0000 </r>
       <r>  -27.6022    1.0000 </r>
       <r>  -26.6629    1.0000 </r>
       <r>  -26.6485    1.0000 </r>
       <r>  -26.6442    1.0000 </r>
       <r>  -26.1210    1.0000 </r>
       <r>  -26.1094    1.0000 </r>
       <r>  -26.1057    1.0000 </r>
       <r>  -25.5365    1.0000 </r>
       <r>  -25.5342    1.0000 </r>
       <r>  -25.5326    1.0000 </r>
       <r>  -25.3969    1.0000 </r>
       <r>  -25.3963    1.0000 </r>
       <r>  -25.3926    1.0000 </r>
       <r>  -24.3009    1.0000 </r>
       <r>  -24.2992    1.0000 </r>
       <r>  -24.2936    1.0000 </r>
[...]
       <r>   -28.6360     0.0000     0.0000 </r>
       <r>   -28.5295     0.0000     0.0000 </r>
       <r>   -28.4230     0.0000     0.0000 </r>
       <r>   -28.3165     0.0000     0.0000 </r>
       <r>   -28.2100     0.0000     0.0000 </r>
       <r>   -28.1035     0.0000     0.0000 </r>
       <r>   -27.9971     0.0000     0.0000 </r>
       <r>   -27.8906     0.0000     0.0000 </r>
       <r>   -27.7841     0.0000     0.0000 </r>
       <r>   -27.6776     0.0000     0.0000 </r>
       <r>   -27.5711    56.3469     6.0000 </r>
       <r>   -27.4646     0.0000     6.0000 </r>
       <r>   -27.3582     0.0000     6.0000 </r>
       <r>   -27.2517     0.0000     6.0000 </r>
       <r>   -27.1452     0.0000     6.0000 </r>
       <r>   -27.0387     0.0000     6.0000 </r>
       <r>   -26.9322     0.0000     6.0000 </r>
       <r>   -26.8257     0.0000     6.0000 </r>
       <r>   -26.7193     0.0000     6.0000 </r>
       <r>   -26.6128    56.3469    12.0000 </r>
       <r>   -26.5063     0.0000    12.0000 </r>
       <r>   -26.3998     0.0000    12.0000 </r>
       <r>   -26.2933     0.0000    12.0000 </r>
       <r>   -26.1869     0.0000    12.0000 </r>
       <r>   -26.0804    56.3435    17.9996 </r>
       <r>   -25.9739     0.0000    18.0000 </r>
       <r>   -25.8674     0.0000    18.0000 </r>
       <r>   -25.7609     0.0000    18.0000 </r>
       <r>   -25.6544     0.0000    18.0000 </r>
       <r>   -25.5480     1.7554    18.1869 </r>
       <r>   -25.4415     0.0000    24.0000 </r>
       <r>   -25.3350    56.3470    30.0000 </r>
       <r>   -25.2285     0.0000    30.0000 </r>
       <r>   -25.1220     0.0000    30.0000 </r>
       <r>   -25.0155     0.0000    30.0000 </r>
       <r>   -24.9091     0.0000    30.0000 </r>
       <r>   -24.8026     0.0000    30.0000 </r>
       <r>   -24.6961     0.0000    30.0000 </r>
       <r>   -24.5896     0.0000    30.0000 </r>
       <r>   -24.4831     0.0000    30.0000 </r>
       <r>   -24.3766     0.0000    30.0000 </r>
       <r>   -24.2702    56.3389    35.9991 </r>
       <r>   -24.1637     0.0000    36.0000 </r>
       <r>   -24.0572     0.0000    36.0000 </r>
       <r>   -23.9507     0.0000    36.0000 </r>
       <r>   -23.8442     0.0000    36.0000 </r>
       <r>   -23.7377     0.0000    36.0000 </r>
       <r>   -23.6313     0.0000    36.0000 </r>
       <r>   -23.5248     0.0000    36.0000 </r>
       <r>   -23.4183    56.3469    42.0000 </r>
       <r>   -23.3118     0.0000    42.0000 </r>
       <r>   -23.2053     0.0000    42.0000 </r>
       <r>   -23.0988     0.0000    42.0000 </r>
       <r>   -22.9924     0.0000    42.0000 </r>
       <r>   -22.8859     3.5723    42.3804 </r>
       <r>   -22.7794     0.0000    48.0000 </r>
       <r>   -22.6729     0.0000    48.0000 </r>
       <r>   -22.5664     0.0000    48.0000 </r>
       <r>   -22.4599     0.0000    48.0000 </r>
       <r>   -22.3535    18.7823    50.0000 </r>
       <r>   -22.2470     0.0000    50.0000 </r>
       <r>   -22.1405     0.0000    50.0000 </r>
       <r>   -22.0340     0.0000    50.0000 </r>
       <r>   -21.9275     0.0000    50.0000 </r>
       <r>   -21.8210     0.0000    50.0000 </r>
       <r>   -21.7146    18.7815    51.9999 </r>
       <r>   -21.6081     0.0000    52.0000 </r>
       <r>   -21.5016     0.0000    52.0000 </r>
       <r>   -21.3951     0.0000    52.0000 </r>
       <r>   -21.2886     0.0000    52.0000 </r>
       <r>   -21.1821     0.0000    52.0000 </r>
       <r>   -21.0757     0.0000    52.0000 </r>
       <r>   -20.9692     0.0000    52.0000 </r>
       <r>   -20.8627     0.0000    52.0000 </r>
       <r>   -20.7562     0.0000    52.0000 </r>
       <r>   -20.6497     0.0000    52.0000 </r>
       <r>   -20.5432     0.0000    52.0000 </r>
       <r>   -20.4368     0.0000    52.0000 </r>
       <r>   -20.3303     0.0000    52.0000 </r>
       <r>   -20.2238    26.1074    54.7800 </r>
       <r>   -20.1173     0.0000    56.0000 </r>
       <r>   -20.0108     0.0000    56.0000 </r>
       <r>   -19.9043     0.2318    56.0247 </r>
       <r>   -19.7979     5.0962    57.5093 </r>
       <r>   -19.6914     3.4430    58.0000 </r>
       <r>   -19.5849    22.5894    60.4054 </r>
       <r>   -19.4784     3.7386    60.8981 </r>
       <r>   -19.3719     6.5738    62.0000 </r>
       <r>   -19.2655     0.0000    62.0000 </r>
       <r>   -19.1590     0.1212    62.0129 </r>
       <r>   -19.0525    23.5337    65.4060 </r>
       <r>   -18.9460     0.0000    66.0000 </r>
       <r>   -18.8395     0.0000    66.0000 </r>
       <r>   -18.7330     0.0000    66.0000 </r>
       <r>   -18.6266     0.0000    66.0000 </r>
       <r>   -18.5201     0.0000    66.0000 </r>
       <r>   -18.4136     0.0000    66.0000 </r>
       <r>   -18.3071     0.0000    66.0000 </r>
       <r>   -18.2006     0.0000    66.0000 </r>
       <r>   -18.0941     0.0000    66.0000 </r>
       <r>   -17.9877     0.0000    66.0000 </r>
       <r>   -17.8812     0.0000    66.0000 </r>
       <r>   -17.7747    19.6833    68.0959 </r>
       <r>   -17.6682    24.4169    72.0000 </r>
       <r>   -17.5617     0.0000    72.0000 </r>
       <r>   -17.4552    22.4629    74.3919 </r>
       <r>   -17.3488     0.0000    78.0000 </r>
       <r>   -17.2423     0.0000    78.0000 </r>
       <r>   -17.1358     0.0000    78.0000 </r>
       <r>   -17.0293     0.0000    78.0000 </r>
       <r>   -16.9228     0.0000    78.0000 </r>
       <r>   -16.8163     0.0000    78.0000 </r>
       <r>   -16.7099     0.0000    78.0000 </r>
       <r>   -16.6034     1.5759    78.1678 </r>
       <r>   -16.4969     0.0000    82.0000 </r>
       <r>   -16.3904     0.0000    82.0000 </r>
       <r>   -16.2839    12.4433    83.3250 </r>
       <r>   -16.1774     3.1304    84.0000 </r>
       <r>   -16.0710     0.0000    84.0000 </r>
       <r>   -15.9645     0.0000    84.0000 </r>
       <r>   -15.8580     0.0000    84.0000 </r>
       <r>   -15.7515    23.8114    86.5355 </r>
       <r>   -15.6450     5.1818    87.2518 </r>
       <r>   -15.5385     6.8860    88.3666 </r>
       <r>   -15.4321     5.6202    89.2985 </r>
       <r>   -15.3256    19.6113    91.5216 </r>
       <r>   -15.2191    19.0544    94.0290 </r>
       <r>   -15.1126     5.0585    98.5386 </r>
       <r>   -15.0061    12.0730   100.0856 </r>
       <r>   -14.8996     5.6346   102.0000 </r>
       <r>   -14.7932     0.0000   102.0000 </r>
       <r>   -14.6867     0.0000   102.0000 </r>
       <r>   -14.5802    29.0914   105.0977 </r>
       <r>   -14.4737     0.0000   106.0000 </r>
       <r>   -14.3672     0.0000   106.0000 </r>
       <r>   -14.2607     0.0000   106.0000 </r>
       <r>   -14.1543    27.1582   108.8919 </r>
       <r>   -14.0478    11.5824   112.0000 </r>
       <r>   -13.9413    18.7813   113.9999 </r>
       <r>   -13.8348     0.6924   114.0737 </r>
       <r>   -13.7283    13.4606   118.0000 </r>
       <r>   -13.6218     0.0000   118.0000 </r>
       <r>   -13.5154     0.0000   118.0000 </r>
       <r>   -13.4089     0.0000   118.0000 </r>
       <r>   -13.3024     0.0000   118.0000 </r>
       <r>   -13.1959    18.7823   120.0000 </r>
       <r>   -13.0894     0.0000   120.0000 </r>
       <r>   -12.9830    18.4290   121.9624 </r>
       <r>   -12.8765    36.4953   125.8861 </r>
       <r>   -12.7700    41.7102   131.5748 </r>
       <r>   -12.6635     0.0000   132.0000 </r>
       <r>   -12.5570     0.0000   132.0000 </r>
       <r>   -12.4505    18.7823   134.0000 </r>
       <r>   -12.3441     0.0000   134.0000 </r>
       <r>   -12.2376     0.0000   134.0000 </r>
       <r>   -12.1311     0.0000   134.0000 </r>
       <r>   -12.0246    53.2148   139.6665 </r>
       <r>   -11.9181     1.4347   140.1528 </r>
       <r>   -11.8116    21.0446   144.2409 </r>
       <r>   -11.7052     0.0000   148.0000 </r>
       <r>   -11.5987     0.0000   148.0000 </r>
       <r>   -11.4922     0.0000   148.0000 </r>
       <r>   -11.3857    54.7138   153.8261 </r>
       <r>   -11.2792     0.3546   154.0378 </r>
       <r>   -11.1727     3.7563   156.0000 </r>
       <r>   -11.0663    37.5647   160.0000 </r>
       <r>   -10.9598    56.3469   166.0000 </r>
       <r>   -10.8533     0.0000   166.0000 </r>
       <r>   -10.7468    49.6522   171.2871 </r>
       <r>   -10.6403    47.2333   177.0296 </r>
       <r>   -10.5338    37.5525   181.9987 </r>
       <r>   -10.4274    18.8056   184.0025 </r>
       <r>   -10.3209    12.2084   186.0000 </r>
       <r>   -10.2144    13.8527   187.4751 </r>
       <r>   -10.1079     0.0000   190.0000 </r>
       <r>   -10.0014     0.0000   190.0000 </r>
       <r>    -9.8949    52.5835   195.5993 </r>
       <r>    -9.7885     0.0114   196.0012 </r>
       <r>    -9.6820     4.4688   196.7092 </r>
       <r>    -9.5755    10.5355   197.9885 </r>
       <r>    -9.4690    37.5636   201.9999 </r>
       <r>    -9.3625    62.6291   208.6689 </r>
       <r>    -9.2560     3.4907   209.4384 </r>
       <r>    -9.1496     3.6282   209.9530 </r>
       <r>    -9.0431    21.2867   212.2667 </r>
       <r>    -8.9366     4.9886   212.9312 </r>
       <r>    -8.8301     0.0000   214.0000 </r>
       <r>    -8.7236    37.5646   218.0000 </r>
       <r>    -8.6171     3.6001   218.3834 </r>
       <r>    -8.5107     0.0000   220.0000 </r>
       <r>    -8.4042     0.0000   220.0000 </r>
       <r>    -8.2977     0.0001   220.0000 </r>
       <r>    -8.1912    56.2868   225.9936 </r>
       <r>    -8.0847     0.0000   226.0000 </r>
       <r>    -7.9782     0.0000   226.0000 </r>
       <r>    -7.8718     0.2264   226.0241 </r>
       <r>    -7.7653     0.0000   232.0000 </r>
       <r>    -7.6588    32.8415   235.4971 </r>
       <r>    -7.5523     0.0000   238.0000 </r>
       <r>    -7.4458    14.9125   239.5879 </r>
       <r>    -7.3393    22.2240   243.9998 </r>
       <r>    -7.2329    37.5576   247.9992 </r>
       <r>    -7.1264     0.0000   248.0000 </r>
       <r>    -7.0199     0.0000   248.0000 </r>
       <r>    -6.9134    53.1719   253.6619 </r>
       <r>    -6.8069     0.0000   254.0000 </r>
       <r>    -6.7005     0.0009   254.0001 </r>
       <r>    -6.5940    63.8395   261.1312 </r>
       <r>    -6.4875    15.3386   264.0000 </r>
       <r>    -6.3810     0.3970   264.0423 </r>
       <r>    -6.2745    13.4678   266.0008 </r>
       <r>    -6.1680    30.6777   270.0000 </r>
       <r>    -6.0616     0.0000   270.0000 </r>
       <r>    -5.9551     0.0000   270.0000 </r>
       <r>    -5.8486     0.0000   270.0000 </r>
       <r>    -5.7421    56.3425   275.9995 </r>
       <r>    -5.6356    18.5262   277.9727 </r>
       <r>    -5.5291     0.1757   278.0187 </r>
       <r>    -5.4227     6.2604   282.0000 </r>
       <r>    -5.3162     0.0000   282.0000 </r>
       <r>    -5.2097     0.0000   282.0000 </r>
       <r>    -5.1032     0.0000   282.0000 </r>
       <r>    -4.9967     0.0000   282.0000 </r>
       <r>    -4.8902     0.0000   282.0000 </r>
       <r>    -4.7838     0.0000   282.0000 </r>
       <r>    -4.6773     0.0000   282.0000 </r>
       <r>    -4.5708     0.0000   282.0000 </r>
       <r>    -4.4643     0.0000   282.0000 </r>
       <r>    -4.3578     0.0000   282.0000 </r>
       <r>    -4.2513     0.0000   282.0000 </r>
       <r>    -4.1449     0.0000   282.0000 </r>
       <r>    -4.0384     0.0000   282.0000 </r>
       <r>    -3.9319     0.0000   282.0000 </r>
       <r>    -3.8254     0.0000   282.0000 </r>
       <r>    -3.7189     0.0000   282.0000 </r>
       <r>    -3.6124     0.0000   282.0000 </r>
       <r>    -3.5060     0.0000   282.0000 </r>
       <r>    -3.3995     0.0000   282.0000 </r>
       <r>    -3.2930     0.0000   282.0000 </r>
       <r>    -3.1865    37.5652   286.0001 </r>
       <r>    -3.0800    55.9414   291.9569 </r>
       <r>    -2.9735     0.0000   292.0000 </r>
       <r>    -2.8671     0.0000   292.0000 </r>
       <r>    -2.7606     9.8079   293.0444 </r>
       <r>    -2.6541     3.8683   293.7119 </r>
       <r>    -2.5476    21.9380   296.1694 </r>
       <r>    -2.4411     2.4028   296.5225 </r>
       <r>    -2.3346     2.4737   296.8634 </r>
       <r>    -2.2282     6.9550   297.6739 </r>
       <r>    -2.1217     1.3897   298.0480 </r>
       <r>    -2.0152     6.6811   299.0114 </r>
       <r>    -1.9087     2.0581   299.3192 </r>
       <r>    -1.8022     2.0792   299.5881 </r>
       <r>    -1.6957     1.8174   299.8602 </r>
       <r>    -1.5893    21.2175   302.1926 </r>
       <r>    -1.4828     2.0461   302.4845 </r>
       <r>    -1.3763     2.5900   302.8425 </r>
       <r>    -1.2698     9.7042   304.0000 </r>
       <r>    -1.1633     0.0000   304.0000 </r>
       <r>    -1.0568     0.0000   304.0000 </r>
       <r>    -0.9504     0.0013   304.0001 </r>
       <r>    -0.8439    14.7372   306.2360 </r>
       <r>    -0.7374     5.0313   307.5691 </r>
       <r>    -0.6309     1.8797   308.0002 </r>
       <r>    -0.5244    30.9904   312.0000 </r>
       <r>    -0.4180     6.5658   312.6991 </r>
       <r>    -0.3115     0.0000   316.0000 </r>
       <r>    -0.2050    18.7823   318.0000 </r>
       <r>    -0.0985     4.2464   318.4522 </r>
       <r>     0.0080     0.3464   320.0369 </r>
       <r>     0.1145    25.3561   324.0000 </r>
       <r>     0.2209     6.8262   324.7269 </r>
       <r>     0.3274    55.4768   330.9407 </r>
       <r>     0.4339     0.8825   332.0940 </r>
       <r>     0.5404    10.9344   334.1310 </r>
       <r>     0.6469    27.2800   339.2715 </r>
       <r>     0.7534    45.2907   344.7227 </r>
       <r>     0.8598    53.6379   352.6782 </r>
       <r>     0.9663    58.5980   359.8730 </r>
       <r>     1.0728    46.0522   365.8038 </r>
       <r>     1.1793    42.8453   371.5623 </r>
       <r>     1.2858    35.7342   376.7718 </r>
       <r>     1.3923    29.7975   382.2396 </r>
       <r>     1.4987     3.4434   384.0000 </r>
       <r>     1.6052     0.0000   384.0000 </r>
       <r>     1.7117     0.0000   384.0000 </r>
       <r>     1.8182     0.0000   384.0000 </r>
       <r>     1.9247     0.0000   384.0000 </r>
       <r>     2.0312     0.0000   384.0000 </r>
       <r>     2.1376     0.0000   384.0000 </r>
       <r>     2.2441     0.0000   384.0000 </r>
       <r>     2.3506     0.0000   384.0000 </r>
       <r>     2.4571     0.0000   384.0000 </r>
       <r>     2.5636     0.0000   384.0000 </r>
       <r>     2.6701     0.0000   384.0000 </r>
       <r>     2.7765     0.0000   384.0000 </r>
       <r>     2.8830     0.0000   384.0000 </r>
      </set>
     </set>
    </array>
   </total>
  </dos>
 </calculation>
 <structure name="finalpos" >
  <crystal>
   <varray name="basis" >
    <v>      22.23942973      -0.00201719       0.00000000 </v>
    <v>     -11.12146421      19.24081784       0.00000000 </v>
    <v>       0.00000000       0.00000000      20.00000000 </v>
   </varray>
   <i name="volume">   8557.64764406 </i>
   <varray name="rec_basis" >
    <v>       0.04496754       0.02599187       0.00000000 </v>
    <v>       0.00000471       0.05197557       0.00000000 </v>
    <v>       0.00000000       0.00000000       0.05000000 </v>
   </varray>
  </crystal>
  <varray name="positions" >
   <v>       0.34711959       0.61338865       0.49071241 </v>
   <v>       0.27682485       0.59462664       0.48971653 </v>
   <v>       0.25750676       0.64548278       0.48832676 </v>
   <v>       0.30910518       0.71580765       0.48840287 </v>
   <v>       0.39790892       0.68365182       0.49065808 </v>
   <v>       0.36245128       0.55500549       0.49768405 </v>
   <v>       0.18381477       0.63050297       0.49295215 </v>
   <v>       0.64590455       0.38528180       0.52925369 </v>
   <v>       0.71538894       0.40107993       0.52931012 </v>
   <v>       0.73155959       0.34791393       0.52927956 </v>
   <v>       0.67784449       0.27838621       0.52916031 </v>
   <v>       0.59274603       0.31589006       0.52913948 </v>
   <v>       0.63340146       0.44553577       0.52320466 </v>
   <v>       0.80424059       0.36047140       0.52309626 </v>
   <v>       0.52781979       0.06837291       0.52199975 </v>
   <v>       0.54903766       0.02279472       0.54880179 </v>
   <v>       0.61202166       0.04600211       0.59170320 </v>
   <v>       0.53303653       0.46619709       0.52327739 </v>
   <v>       0.46556742       0.44352319       0.54908265 </v>
   <v>       0.42553706       0.37932259       0.59048687 </v>
   <v>       0.92500801       0.46105949       0.52134272 </v>
   <v>       0.97056086       0.52853066       0.54684936 </v>
   <v>       0.94758037       0.56889641       0.58917805 </v>
   <v>       0.37927939       0.73527637       0.48939032 </v>
   <v>       0.43773711       0.80909520       0.49504416 </v>
   <v>       0.60854207       0.26217059       0.52908957 </v>
   <v>       0.54850734       0.18937222       0.52270129 </v>
   <v>       0.43949003       0.97617769       0.46728721 </v>
   <v>       0.45864208       0.93019162       0.49629647 </v>
   <v>       0.52937132       0.55572211       0.47087427 </v>
   <v>       0.46317526       0.53466797       0.49842757 </v>
   <v>       0.01667157       0.46457176       0.46605309 </v>
   <v>       0.06268804       0.53041599       0.49381205 </v>
   <v>       0.51377273       0.95461044       0.53612185 </v>
   <v>       0.56549465       0.13805937       0.53679529 </v>
   <v>       0.43218333       0.47836489       0.53676757 </v>
   <v>       0.56512374       0.42846377       0.53726322 </v>
   <v>       0.03850461       0.56163515       0.53322472 </v>
   <v>       0.85558333       0.42881667       0.53702798 </v>
   <v>       0.47311585       0.04361974       0.48005418 </v>
   <v>       0.41871592       0.85891670       0.48429337 </v>
   <v>       0.56357042       0.52243267       0.48317834 </v>
   <v>       0.43121261       0.57399540       0.48647492 </v>
   <v>       0.94946642       0.43062408       0.47968963 </v>
   <v>       0.13379647       0.56191938       0.48107782 </v>
   <v>       0.49712608       0.82278486       0.50907307 </v>
   <v>       0.31686217       0.49589842       0.51289702 </v>
   <v>       0.17043269       0.67639461       0.50716602 </v>
   <v>       0.49049742       0.17723532       0.50589684 </v>
   <v>       0.67944021       0.50368386       0.50675059 </v>
   <v>       0.81631081       0.31445035       0.50655609 </v>
   <v>       0.65050447       0.10683468       0.60843755 </v>
   <v>       0.62327301       0.99447699       0.61014641 </v>
   <v>       0.44797198       0.34070521       0.60632175 </v>
   <v>       0.36239508       0.36709753       0.60862946 </v>
   <v>       0.88694166       0.54657981       0.60640680 </v>
   <v>       0.99908666       0.63216583       0.60647268 </v>
   <v>       0.29079386       0.75307091       0.49110406 </v>
   <v>       0.45334839       0.70187986       0.49510805 </v>
   <v>       0.23937146       0.53913780       0.49360172 </v>
   <v>       0.69296753       0.23869974       0.52647938 </v>
   <v>       0.53790609       0.30065691       0.52651900 </v>
   <v>       0.75505443       0.45595953       0.52677733 </v>
   <v>       0.58532655       0.95157872       0.58915513 </v>
   <v>       0.60913861       0.15035445       0.56472437 </v>
   <v>       0.35735475       0.40534136       0.58851668 </v>
   <v>       0.53341778       0.38404368       0.56412323 </v>
   <v>       0.04181543       0.63699749       0.58528503 </v>
   <v>       0.84332246       0.46050252       0.56445196 </v>
   <v>       0.39580379       0.95709720       0.43227145 </v>
   <v>       0.37103217       0.84259450       0.46439245 </v>
   <v>       0.55461314       0.60081432       0.43749381 </v>
   <v>       0.46228703       0.62164105       0.46627093 </v>
   <v>       0.03549713       0.43943046       0.43141233 </v>
   <v>       0.15014005       0.53043549       0.46150491 </v>
  </varray>
 </structure>
</modeling>
