<?xml version="1.0" encoding="ISO-8859-1"?>
<modeling>
 <generator>
  <i name="program" type="string">vasp </i>
  <i name="version" type="string">5.4.4.18Apr17-6-g9f103f2a35  </i>
  <i name="subversion" type="string">(build Jun 07 2020 16:50:00) complex            parallel </i>
  <i name="platform" type="string">LinuxIFC </i>
  <i name="date" type="string">2023 02 17 </i>
  <i name="time" type="string">09:28:38 </i>
 </generator>
 <incar>
  <i type="string" name="SYSTEM">Simulation for cell shape cell volume r</i>
  <i type="int" name="ISTART">     1</i>
  <i type="string" name="PREC">high</i>
  <i type="string" name="ALGO">48</i>
  <i type="int" name="ICHARG">    11</i>
  <i type="int" name="NELM">   200</i>
  <i type="int" name="IBRION">    -1</i>
  <i name="EDIFF">      0.00001000</i>
  <i name="EDIFFG">     -0.01000000</i>
  <i type="int" name="NSW">     0</i>
  <i type="int" name="ISIF">     2</i>
  <i name="ENCUT">    500.00000000</i>
  <i name="POTIM">      0.30000000</i>
  <i type="string" name="LREAL">A</i>
  <i type="int" name="ISMEAR">     0</i>
  <i name="SIGMA">      0.01000000</i>
  <i type="int" name="NWRITE">     0</i>
  <i type="logical" name="LWAVE"> F  </i>
  <i type="logical" name="LCHARG"> F  </i>
  <v type="int" name="KPOINT_BSE">    -1     0     0     0</v>
  <i type="int" name="NELM">   200</i>
  <i type="string" name="GGA">PE</i>
 </incar>
 <structure name="primitive_cell" >
  <crystal>
   <varray name="basis" >
    <v>      21.90817103      -0.03084870       0.00000000 </v>
    <v>     -10.98078574      19.07667758       0.00000000 </v>
    <v>       0.00000000       0.00000000      20.00000000 </v>
   </varray>
   <i name="volume">   8351.92744258 </i>
   <varray name="rec_basis" >
    <v>       0.04568210       0.02629521       0.00000000 </v>
    <v>       0.00007387       0.05246255       0.00000000 </v>
    <v>       0.00000000       0.00000000       0.05000000 </v>
   </varray>
  </crystal>
  <varray name="positions" >
   <v>      -0.48978690      -0.05140725      -0.47435169 </v>
   <v>      -0.45271161       0.01458229      -0.45509399 </v>
   <v>       0.45389408      -0.06974874       0.48775392 </v>
   <v>       0.41233218      -0.13956481       0.46763191 </v>
   <v>      -0.39006434       0.03030292      -0.41314739 </v>
   <v>       0.43482999      -0.01935821       0.46960821 </v>
   <v>      -0.47135922       0.06606741      -0.47181673 </v>
   <v>      -0.38380475      -0.01877886      -0.39265577 </v>
   <v>       0.47128964       0.04653205       0.48969023 </v>
   <v>       0.49826654      -0.16947816       0.45326564 </v>
   <v>       0.43566537      -0.18695206       0.45656856 </v>
   <v>       0.36043471      -0.15643515       0.46051833 </v>
   <v>       0.38926636      -0.03325532       0.43739364 </v>
   <v>      -0.34717105       0.09385803      -0.40111237 </v>
   <v>      -0.43180123       0.13506837      -0.45256134 </v>
   <v>      -0.38463138       0.14600293      -0.43161513 </v>
   <v>       0.37836499      -0.26247714       0.45079367 </v>
   <v>      -0.45202124       0.18615598      -0.45342148 </v>
   <v>       0.28456322      -0.25052962       0.45130795 </v>
   <v>       0.45774200      -0.29049234       0.45187360 </v>
   <v>       0.30628900      -0.28563774       0.45011106 </v>
   <v>       0.40076532      -0.31201274       0.45036091 </v>
   <v>       0.48687781       0.17288715      -0.45938191 </v>
   <v>      -0.30312509       0.24047188      -0.45059054 </v>
   <v>      -0.39173335       0.26021384      -0.44735913 </v>
   <v>      -0.32070685       0.27886174      -0.44764019 </v>
   <v>       0.25653851      -0.35744181       0.44966758 </v>
   <v>       0.35191962      -0.38377326       0.44980325 </v>
   <v>       0.47624681      -0.36698321       0.45981398 </v>
   <v>       0.27977297      -0.40603829       0.44913910 </v>
   <v>       0.16321817      -0.33094558       0.45153165 </v>
   <v>       0.18066242      -0.37588540       0.45464271 </v>
   <v>      -0.40985743       0.31298953      -0.44647795 </v>
   <v>      -0.46605234       0.29546238      -0.44859618 </v>
   <v>       0.44079380      -0.41864318       0.46609070 </v>
   <v>      -0.17957039       0.31687221      -0.46020182 </v>
   <v>       0.37010401      -0.44114318       0.45460482 </v>
   <v>      -0.26766347       0.34970902      -0.44716883 </v>
   <v>       0.24443623      -0.46277949       0.44962658 </v>
   <v>      -0.19318246       0.36414555      -0.45341927 </v>
   <v>      -0.35756546       0.38365311      -0.44590969 </v>
   <v>      -0.43046157      -0.39909379       0.43571595 </v>
   <v>       0.13286841      -0.44656044       0.46493345 </v>
   <v>       0.46818458      -0.46095657       0.48666383 </v>
   <v>      -0.28640379       0.40171583      -0.44614130 </v>
   <v>       0.32481643       0.49668939       0.45031584 </v>
   <v>       0.14954663      -0.48151958       0.45756148 </v>
   <v>      -0.46256779      -0.44361764       0.46864345 </v>
   <v>      -0.48006617       0.37638886      -0.43023231 </v>
   <v>       0.04573600      -0.43705474      -0.47489826 </v>
   <v>       0.42947429       0.48363655      -0.47494018 </v>
   <v>      -0.14188753       0.43541901      -0.45194373 </v>
   <v>       0.06284691      -0.47450084       0.48532528 </v>
   <v>       0.01545701      -0.36608470      -0.38801700 </v>
   <v>      -0.24784797       0.45766694      -0.44791771 </v>
   <v>       0.42913933       0.34048823      -0.40062424 </v>
   <v>      -0.37181003       0.44357603      -0.45068540 </v>
   <v>      -0.44339397       0.42343017      -0.45056436 </v>
   <v>      -0.05472380       0.42794390       0.48663936 </v>
   <v>      -0.15260796       0.47127279      -0.43029638 </v>
   <v>      -0.43389374      -0.48058712       0.48967360 </v>
   <v>      -0.07294658       0.46499184      -0.47255854 </v>
   <v>       0.45763188       0.44608845      -0.45471874 </v>
   <v>      -0.02025545      -0.46566558      -0.45483887 </v>
   <v>      -0.03464011      -0.41949080      -0.41076052 </v>
   <v>      -0.47232689       0.46322095      -0.47099863 </v>
   <v>      -0.32410424      -0.49542202      -0.45536989 </v>
   <v>       0.41024062       0.38489564      -0.41179981 </v>
   <v>       0.01114877       0.45715570       0.46562815 </v>
   <v>       0.02393791       0.42626807       0.43141311 </v>
   <v>       0.35637171       0.38137813      -0.38969941 </v>
   <v>      -0.09825108      -0.43879952      -0.39946586 </v>
  </varray>
 </structure>
 <varray name="primitive_index" >
  <v type="int" >        1 </v>
  <v type="int" >       31 </v>
  <v type="int" >       41 </v>
  <v type="int" >       11 </v>
  <v type="int" >        2 </v>
  <v type="int" >       40 </v>
  <v type="int" >       30 </v>
  <v type="int" >       53 </v>
  <v type="int" >       10 </v>
  <v type="int" >       46 </v>
  <v type="int" >       37 </v>
  <v type="int" >       68 </v>
  <v type="int" >       67 </v>
  <v type="int" >       52 </v>
  <v type="int" >        3 </v>
  <v type="int" >       64 </v>
  <v type="int" >       36 </v>
  <v type="int" >       39 </v>
  <v type="int" >       58 </v>
  <v type="int" >       59 </v>
  <v type="int" >       19 </v>
  <v type="int" >       20 </v>
  <v type="int" >       49 </v>
  <v type="int" >       61 </v>
  <v type="int" >       38 </v>
  <v type="int" >       26 </v>
  <v type="int" >       18 </v>
  <v type="int" >       16 </v>
  <v type="int" >       70 </v>
  <v type="int" >       17 </v>
  <v type="int" >       48 </v>
  <v type="int" >       22 </v>
  <v type="int" >       27 </v>
  <v type="int" >       62 </v>
  <v type="int" >       13 </v>
  <v type="int" >       51 </v>
  <v type="int" >       21 </v>
  <v type="int" >       25 </v>
  <v type="int" >       60 </v>
  <v type="int" >       29 </v>
  <v type="int" >       23 </v>
  <v type="int" >       69 </v>
  <v type="int" >       15 </v>
  <v type="int" >       43 </v>
  <v type="int" >       24 </v>
  <v type="int" >       47 </v>
  <v type="int" >       72 </v>
  <v type="int" >       42 </v>
  <v type="int" >       65 </v>
  <v type="int" >        7 </v>
  <v type="int" >        4 </v>
  <v type="int" >        9 </v>
  <v type="int" >       45 </v>
  <v type="int" >       57 </v>
  <v type="int" >       63 </v>
  <v type="int" >       54 </v>
  <v type="int" >       28 </v>
  <v type="int" >        6 </v>
  <v type="int" >       14 </v>
  <v type="int" >       66 </v>
  <v type="int" >       12 </v>
  <v type="int" >       34 </v>
  <v type="int" >       33 </v>
  <v type="int" >       35 </v>
  <v type="int" >        8 </v>
  <v type="int" >       32 </v>
  <v type="int" >       50 </v>
  <v type="int" >        5 </v>
  <v type="int" >       44 </v>
  <v type="int" >       71 </v>
  <v type="int" >       55 </v>
  <v type="int" >       56 </v>
 </varray>
 <kpoints>
  <generation param="listgenerated">
   <i name="divisions" type="int">      20 </i>
   <v>       0.00000000       0.00000000       0.00000000 </v>
   <v>       0.50000000       0.00000000       0.00000000 </v>
   <v>       0.33333333       0.33333333       0.00000000 </v>
   <v>       0.00000000       0.00000000       0.00000000 </v>
  </generation>
  <varray name="kpointlist" >
   <v>       0.00000000       0.00000000       0.00000000 </v>
   <v>       0.02631579       0.00000000       0.00000000 </v>
   <v>       0.05263158       0.00000000       0.00000000 </v>
   <v>       0.07894737       0.00000000       0.00000000 </v>
   <v>       0.10526316       0.00000000       0.00000000 </v>
   <v>       0.13157895       0.00000000       0.00000000 </v>
   <v>       0.15789474       0.00000000       0.00000000 </v>
   <v>       0.18421053       0.00000000       0.00000000 </v>
   <v>       0.21052632       0.00000000       0.00000000 </v>
   <v>       0.23684211       0.00000000       0.00000000 </v>
   <v>       0.26315789       0.00000000       0.00000000 </v>
   <v>       0.28947368       0.00000000       0.00000000 </v>
   <v>       0.31578947       0.00000000       0.00000000 </v>
   <v>       0.34210526       0.00000000       0.00000000 </v>
   <v>       0.36842105       0.00000000       0.00000000 </v>
   <v>       0.39473684       0.00000000       0.00000000 </v>
   <v>       0.42105263       0.00000000       0.00000000 </v>
   <v>       0.44736842       0.00000000       0.00000000 </v>
   <v>       0.47368421       0.00000000       0.00000000 </v>
   <v>       0.50000000       0.00000000       0.00000000 </v>
   <v>       0.50000000       0.00000000       0.00000000 </v>
   <v>       0.49122807       0.01754386       0.00000000 </v>
   <v>       0.48245614       0.03508772       0.00000000 </v>
   <v>       0.47368421       0.05263158       0.00000000 </v>
   <v>       0.46491228       0.07017544       0.00000000 </v>
   <v>       0.45614035       0.08771930       0.00000000 </v>
   <v>       0.44736842       0.10526316       0.00000000 </v>
   <v>       0.43859649       0.12280702       0.00000000 </v>
   <v>       0.42982456       0.14035088       0.00000000 </v>
   <v>       0.42105263       0.15789474       0.00000000 </v>
   <v>       0.41228070       0.17543860       0.00000000 </v>
   <v>       0.40350877       0.19298246       0.00000000 </v>
   <v>       0.39473684       0.21052632       0.00000000 </v>
   <v>       0.38596491       0.22807018       0.00000000 </v>
   <v>       0.37719298       0.24561404       0.00000000 </v>
   <v>       0.36842105       0.26315789       0.00000000 </v>
   <v>       0.35964912       0.28070175       0.00000000 </v>
   <v>       0.35087719       0.29824561       0.00000000 </v>
   <v>       0.34210526       0.31578947       0.00000000 </v>
   <v>       0.33333333       0.33333333       0.00000000 </v>
   <v>       0.33333333       0.33333333       0.00000000 </v>
   <v>       0.31578947       0.31578947       0.00000000 </v>
   <v>       0.29824561       0.29824561       0.00000000 </v>
   <v>       0.28070175       0.28070175       0.00000000 </v>
   <v>       0.26315789       0.26315789       0.00000000 </v>
   <v>       0.24561404       0.24561404       0.00000000 </v>
   <v>       0.22807018       0.22807018       0.00000000 </v>
   <v>       0.21052632       0.21052632       0.00000000 </v>
   <v>       0.19298246       0.19298246       0.00000000 </v>
   <v>       0.17543860       0.17543860       0.00000000 </v>
   <v>       0.15789474       0.15789474       0.00000000 </v>
   <v>       0.14035088       0.14035088       0.00000000 </v>
   <v>       0.12280702       0.12280702       0.00000000 </v>
   <v>       0.10526316       0.10526316       0.00000000 </v>
   <v>       0.08771930       0.08771930       0.00000000 </v>
   <v>       0.07017544       0.07017544       0.00000000 </v>
   <v>       0.05263158       0.05263158       0.00000000 </v>
   <v>       0.03508772       0.03508772       0.00000000 </v>
   <v>       0.01754386       0.01754386       0.00000000 </v>
   <v>       0.00000000       0.00000000       0.00000000 </v>
  </varray>
  <varray name="weights" >
   <v>       0.01666667 </v>
   <v>       0.01666667 </v>
   <v>       0.01666667 </v>
   <v>       0.01666667 </v>
   <v>       0.01666667 </v>
   <v>       0.01666667 </v>
   <v>       0.01666667 </v>
   <v>       0.01666667 </v>
   <v>       0.01666667 </v>
   <v>       0.01666667 </v>
   <v>       0.01666667 </v>
   <v>       0.01666667 </v>
   <v>       0.01666667 </v>
   <v>       0.01666667 </v>
   <v>       0.01666667 </v>
   <v>       0.01666667 </v>
   <v>       0.01666667 </v>
   <v>       0.01666667 </v>
   <v>       0.01666667 </v>
   <v>       0.01666667 </v>
   <v>       0.01666667 </v>
   <v>       0.01666667 </v>
   <v>       0.01666667 </v>
   <v>       0.01666667 </v>
   <v>       0.01666667 </v>
   <v>       0.01666667 </v>
   <v>       0.01666667 </v>
   <v>       0.01666667 </v>
   <v>       0.01666667 </v>
   <v>       0.01666667 </v>
   <v>       0.01666667 </v>
   <v>       0.01666667 </v>
   <v>       0.01666667 </v>
   <v>       0.01666667 </v>
   <v>       0.01666667 </v>
   <v>       0.01666667 </v>
   <v>       0.01666667 </v>
   <v>       0.01666667 </v>
   <v>       0.01666667 </v>
   <v>       0.01666667 </v>
   <v>       0.01666667 </v>
   <v>       0.01666667 </v>
   <v>       0.01666667 </v>
   <v>       0.01666667 </v>
   <v>       0.01666667 </v>
   <v>       0.01666667 </v>
   <v>       0.01666667 </v>
   <v>       0.01666667 </v>
   <v>       0.01666667 </v>
   <v>       0.01666667 </v>
   <v>       0.01666667 </v>
   <v>       0.01666667 </v>
   <v>       0.01666667 </v>
   <v>       0.01666667 </v>
   <v>       0.01666667 </v>
   <v>       0.01666667 </v>
   <v>       0.01666667 </v>
   <v>       0.01666667 </v>
   <v>       0.01666667 </v>
   <v>       0.01666667 </v>
  </varray>
 </kpoints>
 <parameters>
  <separator name="general" >
   <i type="string" name="SYSTEM">Simulation for cell shape cell volume r</i>
   <i type="logical" name="LCOMPAT"> F  </i>
  </separator>
  <separator name="electronic" >
   <i type="string" name="PREC">high</i>
   <i name="ENMAX">    500.00000000</i>
   <i name="ENAUG">    644.87300000</i>
   <i name="EDIFF">      0.00001000</i>
   <i type="int" name="IALGO">    38</i>
   <i type="int" name="IWAVPR">    10</i>
   <i type="int" name="NBANDS">   192</i>
   <i name="NELECT">    282.00000000</i>
   <i type="int" name="TURBO">     0</i>
   <i type="int" name="IRESTART">     0</i>
   <i type="int" name="NREBOOT">     0</i>
   <i type="int" name="NMIN">     0</i>
   <i name="EREF">      0.00000000</i>
   <separator name="electronic smearing" >
    <i type="int" name="ISMEAR">     0</i>
    <i name="SIGMA">      0.01000000</i>
    <i name="KSPACING">      0.50000000</i>
    <i type="logical" name="KGAMMA"> T  </i>
   </separator>
   <separator name="electronic projectors" >
    <i type="logical" name="LREAL"> T  </i>
    <v name="ROPT">     -0.00040000     -0.00040000     -0.00040000     -0.00040000</v>
    <i type="int" name="LMAXPAW">  -100</i>
    <i type="int" name="LMAXMIX">     2</i>
    <i type="logical" name="NLSPLINE"> F  </i>
   </separator>
   <separator name="electronic startup" >
    <i type="int" name="ISTART">     1</i>
    <i type="int" name="ICHARG">    11</i>
    <i type="int" name="INIWAV">     1</i>
   </separator>
   <separator name="electronic spin" >
    <i type="int" name="ISPIN">     1</i>
    <i type="logical" name="LNONCOLLINEAR"> F  </i>
    <v name="MAGMOM">      1.00000000      1.00000000      1.00000000      1.00000000      1.00000000      1.00000000      1.00000000      1.00000000      1.00000000      1.00000000      1.00000000      1.00000000      1.00000000      1.00000000      1.00000000      1.00000000      1.00000000      1.00000000      1.00000000      1.00000000
      1.00000000      1.00000000      1.00000000      1.00000000      1.00000000      1.00000000      1.00000000      1.00000000      1.00000000      1.00000000      1.00000000      1.00000000      1.00000000      1.00000000      1.00000000      1.00000000      1.00000000      1.00000000      1.00000000      1.00000000
      1.00000000      1.00000000      1.00000000      1.00000000      1.00000000      1.00000000      1.00000000      1.00000000      1.00000000      1.00000000      1.00000000      1.00000000      1.00000000      1.00000000      1.00000000      1.00000000      1.00000000      1.00000000      1.00000000      1.00000000
      1.00000000      1.00000000      1.00000000      1.00000000      1.00000000      1.00000000      1.00000000      1.00000000      1.00000000      1.00000000      1.00000000      1.00000000</v>
    <i name="NUPDOWN">     -1.00000000</i>
    <i type="logical" name="LSORBIT"> F  </i>
    <v name="SAXIS">      0.00000000      0.00000000      1.00000000</v>
    <i type="logical" name="LSPIRAL"> F  </i>
    <v name="QSPIRAL">      0.00000000      0.00000000      0.00000000</v>
    <i type="logical" name="LZEROZ"> F  </i>
   </separator>
   <separator name="electronic exchange-correlation" >
    <i type="logical" name="LASPH"> F  </i>
    <i type="logical" name="LMETAGGA"> F  </i>
   </separator>
   <separator name="electronic convergence" >
    <i type="int" name="NELM">   200</i>
    <i type="int" name="NELMDL">     0</i>
    <i type="int" name="NELMIN">     2</i>
    <i name="ENINI">    500.00000000</i>
    <separator name="electronic convergence detail" >
     <i type="logical" name="LDIAG"> T  </i>
     <i type="logical" name="LSUBROT"> F  </i>
     <i name="WEIMIN">      0.00000000</i>
     <i name="EBREAK">      0.00000001</i>
     <i name="DEPER">      0.30000000</i>
     <i type="int" name="NRMM">     4</i>
     <i name="TIME">      0.40000000</i>
    </separator>
   </separator>
   <separator name="electronic mixer" >
    <i name="AMIX">      0.40000000</i>
    <i name="BMIX">      1.00000000</i>
    <i name="AMIN">      0.10000000</i>
    <i name="AMIX_MAG">      1.60000000</i>
    <i name="BMIX_MAG">      1.00000000</i>
    <separator name="electronic mixer details" >
     <i type="int" name="IMIX">     4</i>
     <i type="logical" name="MIXFIRST"> F  </i>
     <i type="int" name="MAXMIX">   -45</i>
     <i name="WC">    100.00000000</i>
     <i type="int" name="INIMIX">     1</i>
     <i type="int" name="MIXPRE">     1</i>
     <i type="int" name="MREMOVE">     5</i>
    </separator>
   </separator>
   <separator name="electronic dipolcorrection" >
    <i type="logical" name="LDIPOL"> F  </i>
    <i type="logical" name="LMONO"> F  </i>
    <i type="int" name="IDIPOL">     0</i>
    <i name="EPSILON">      1.00000000</i>
    <v name="DIPOL">   -100.00000000   -100.00000000   -100.00000000</v>
    <i name="EFIELD">      0.00000000</i>
   </separator>
  </separator>
  <separator name="grids" >
   <i type="int" name="NGX">   160</i>
   <i type="int" name="NGY">   162</i>
   <i type="int" name="NGZ">   150</i>
   <i type="int" name="NGXF">   250</i>
   <i type="int" name="NGYF">   250</i>
   <i type="int" name="NGZF">   224</i>
   <i type="logical" name="ADDGRID"> F  </i>
  </separator>
  <separator name="ionic" >
   <i type="int" name="NSW">     0</i>
   <i type="int" name="IBRION">    -1</i>
   <i type="int" name="MDALGO">     0</i>
   <i type="int" name="ISIF">     2</i>
   <i name="PSTRESS">      0.00000000</i>
   <i name="EDIFFG">     -0.01000000</i>
   <i type="int" name="NFREE">     0</i>
   <i name="POTIM">      0.30000000</i>
   <i name="SMASS">     -3.00000000</i>
   <i name="SCALEE">      1.00000000</i>
  </separator>
  <separator name="ionic md" >
   <i name="TEBEG">      0.00010000</i>
   <i name="TEEND">      0.00010000</i>
   <i type="int" name="NBLOCK">     1</i>
   <i type="int" name="KBLOCK">     1</i>
   <i type="int" name="NPACO">   256</i>
   <i name="APACO">     16.00000000</i>
  </separator>
  <separator name="symmetry" >
   <i type="int" name="ISYM">     2</i>
   <i name="SYMPREC">      0.00001000</i>
  </separator>
  <separator name="dos" >
   <i type="int" name="LORBIT">     0</i>
   <v name="RWIGS">     -1.00000000     -1.00000000     -1.00000000     -1.00000000</v>
   <i type="int" name="NEDOS">   301</i>
   <i name="EMIN">     10.00000000</i>
   <i name="EMAX">    -10.00000000</i>
   <i name="EFERMI">      0.00000000</i>
  </separator>
  <separator name="writing" >
   <i type="int" name="NWRITE">     0</i>
   <i type="logical" name="LWAVE"> F  </i>
   <i type="logical" name="LDOWNSAMPLE"> F  </i>
   <i type="logical" name="LCHARG"> F  </i>
   <i type="logical" name="LPARD"> F  </i>
   <i type="logical" name="LVTOT"> F  </i>
   <i type="logical" name="LVHAR"> F  </i>
   <i type="logical" name="LELF"> F  </i>
   <i type="logical" name="LOPTICS"> F  </i>
   <v name="STM">      0.00000000      0.00000000      0.00000000      0.00000000      0.00000000      0.00000000      0.00000000</v>
  </separator>
  <separator name="performance" >
   <i type="int" name="NPAR">    16</i>
   <i type="int" name="NSIM">     4</i>
   <i type="int" name="NBLK">    -1</i>
   <i type="logical" name="LPLANE"> T  </i>
   <i type="logical" name="LSCALAPACK"> T  </i>
   <i type="logical" name="LSCAAWARE"> F  </i>
   <i type="logical" name="LSCALU"> F  </i>
   <i type="logical" name="LASYNC"> F  </i>
   <i type="logical" name="LORBITALREAL"> F  </i>
  </separator>
  <separator name="miscellaneous" >
   <i type="int" name="IDIOT">     3</i>
   <i type="int" name="ISPECIAL">     0</i>
   <i type="logical" name="LMUSIC"> F  </i>
   <v name="POMASS">     14.00100000     12.01100000     16.00000000      1.00000000</v>
   <v name="DARWINR">      0.00000000      0.00000000      0.00000000      0.00000000</v>
   <v name="DARWINV">      1.00000000      1.00000000      1.00000000      1.00000000</v>
   <i type="logical" name="LCORR"> T  </i>
  </separator>
  <i type="logical" name="GGA_COMPAT"> T  </i>
  <i type="logical" name="LBERRY"> F  </i>
  <i type="int" name="ICORELEVEL">     0</i>
  <i type="logical" name="LDAU"> F  </i>
  <i type="int" name="I_CONSTRAINED_M">     0</i>
  <separator name="electronic exchange-correlation" >
   <i type="string" name="GGA">PE</i>
   <i type="int" name="VOSKOWN">     0</i>
   <i type="logical" name="LHFCALC"> F  </i>
   <i type="string" name="PRECFOCK"></i>
   <i type="logical" name="LSYMGRAD"> F  </i>
   <i type="logical" name="LHFONE"> F  </i>
   <i type="logical" name="LRHFCALC"> F  </i>
   <i type="logical" name="LTHOMAS"> F  </i>
   <i type="logical" name="LMODELHF"> F  </i>
   <i name="ENCUT4O">     -1.00000000</i>
   <i type="int" name="EXXOEP">     0</i>
   <i type="int" name="FOURORBIT">     0</i>
   <i name="AEXX">      0.00000000</i>
   <i name="HFALPHA">      0.00000000</i>
   <i name="MCALPHA">      0.00000000</i>
   <i name="ALDAX">      1.00000000</i>
   <i name="AGGAX">      1.00000000</i>
   <i name="ALDAC">      1.00000000</i>
   <i name="AGGAC">      1.00000000</i>
   <i type="int" name="NKREDX">     1</i>
   <i type="int" name="NKREDY">     1</i>
   <i type="int" name="NKREDZ">     1</i>
   <i type="logical" name="SHIFTRED"> F  </i>
   <i type="logical" name="ODDONLY"> F  </i>
   <i type="logical" name="EVENONLY"> F  </i>
   <i type="int" name="LMAXFOCK">     0</i>
   <i type="int" name="NMAXFOCKAE">     0</i>
   <i type="logical" name="LFOCKAEDFT"> F  </i>
   <i name="HFSCREEN">      0.00000000</i>
   <i name="HFSCREENC">      0.00000000</i>
   <i type="int" name="NBANDSGWLOW">     0</i>
  </separator>
  <separator name="vdW DFT" >
   <i type="logical" name="LUSE_VDW"> F  </i>
   <i name="Zab_VDW">     -0.84910000</i>
   <i name="PARAM1">      0.12340000</i>
   <i name="PARAM2">      1.00000000</i>
   <i name="PARAM3">      0.00000000</i>
  </separator>
  <separator name="model GW" >
   <i type="int" name="MODEL_GW">     0</i>
   <i name="MODEL_EPS0">     69.59939535</i>
   <i name="MODEL_ALPHA">      1.00000000</i>
  </separator>
  <separator name="linear response parameters" >
   <i type="logical" name="LEPSILON"> F  </i>
   <i type="logical" name="LRPA"> F  </i>
   <i type="logical" name="LNABLA"> F  </i>
   <i type="logical" name="LVEL"> F  </i>
   <i type="int" name="KINTER">     0</i>
   <i name="CSHIFT">      0.10000000</i>
   <i name="OMEGAMAX">     -1.00000000</i>
   <i name="DEG_THRESHOLD">      0.00200000</i>
   <i name="RTIME">     -0.10000000</i>
   <i name="WPLASMAI">      0.00000000</i>
   <v name="DFIELD">      0.00000000      0.00000000      0.00000000</v>
   <v name="WPLASMA">      0.00000000      0.00000000      0.00000000      0.00000000      0.00000000      0.00000000      0.00000000      0.00000000      0.00000000</v>
  </separator>
  <separator name="orbital magnetization" >
   <i type="logical" name="NUCIND"> F  </i>
   <v name="MAGPOS">      0.00000000      0.00000000      0.00000000</v>
   <i type="logical" name="LNICSALL"> T  </i>
   <i type="logical" name="ORBITALMAG"> F  </i>
   <i type="logical" name="LMAGBLOCH"> F  </i>
   <i type="logical" name="LCHIMAG"> F  </i>
   <i type="logical" name="LGAUGE"> T  </i>
   <i type="int" name="MAGATOM">     0</i>
   <v name="MAGDIPOL">      0.00000000      0.00000000      0.00000000</v>
   <v name="AVECCONST">      0.00000000      0.00000000      0.00000000</v>
  </separator>
  <separator name="response functions" >
   <i type="logical" name="LADDER"> F  </i>
   <i type="logical" name="LRPAFORCE"> F  </i>
   <i type="logical" name="LFXC"> F  </i>
   <i type="logical" name="LHARTREE"> T  </i>
   <i type="int" name="IBSE">     0</i>
   <v type="int" name="KPOINT">    -1     0     0     0</v>
   <i type="logical" name="LTCTE"> F  </i>
   <i type="logical" name="LTETE"> F  </i>
   <i type="logical" name="LTRIPLET"> F  </i>
   <i type="logical" name="LFXCEPS"> F  </i>
   <i type="logical" name="LFXHEG"> F  </i>
   <i type="int" name="NATURALO">     2</i>
   <i type="logical" name="L2ORDER"> F  </i>
   <i type="logical" name="LMP2LT"> F  </i>
   <i type="logical" name="LUSEW"> F  </i>
   <i name="ENCUTGW">     -2.00000000</i>
   <i name="ENCUTGWSOFT">     -2.00000000</i>
   <i name="ENCUTLF">     -1.00000000</i>
   <i type="int" name="LMAXMP2">    -1</i>
   <i name="SCISSOR">      0.00000000</i>
   <i type="int" name="NOMEGA">     0</i>
   <i type="int" name="NOMEGAR">     0</i>
   <i type="int" name="NBANDSGW">    -1</i>
   <i type="int" name="NBANDSO">    -1</i>
   <i type="int" name="NBANDSV">    -1</i>
   <i type="int" name="NELM">   200</i>
   <i type="int" name="NELMHF">     1</i>
   <i type="int" name="DIM">     3</i>
   <i type="int" name="ANTIRES">     0</i>
   <i name="OMEGAMAX">    -30.00000000</i>
   <i name="OMEGAMIN">    -30.00000000</i>
   <i name="OMEGATL">   -200.00000000</i>
   <i type="int" name="OMEGAGRID">   140</i>
   <i name="CSHIFT">     -0.10000000</i>
   <i type="logical" name="SELFENERGY"> F  </i>
   <i type="logical" name="LSPECTRAL"> F  </i>
   <i type="logical" name="LSPECTRALGW"> F  </i>
   <i type="logical" name="LSINGLES"> F  </i>
   <i type="logical" name="LFERMIGW"> F  </i>
   <i type="logical" name="ODDONLYGW"> F  </i>
   <i type="logical" name="EVENONLYGW"> F  </i>
   <i type="int" name="NKREDLFX">     1</i>
   <i type="int" name="NKREDLFY">     1</i>
   <i type="int" name="NKREDLFZ">     1</i>
   <i type="int" name="MAXMEM">  2800</i>
   <i type="int" name="TELESCOPE">     0</i>
   <i type="int" name="TAUPAR">     1</i>
   <i type="int" name="OMEGAPAR">    -1</i>
   <i name="LAMBDA">      1.00000000</i>
  </separator>
  <separator name="External order field" >
   <i name="OFIELD_KAPPA">      0.00000000</i>
   <v name="OFIELD_K">      0.00000000      0.00000000      0.00000000</v>
   <i name="OFIELD_Q6_NEAR">      0.00000000</i>
   <i name="OFIELD_Q6_FAR">      0.00000000</i>
   <i name="OFIELD_A">      0.00000000</i>
  </separator>
  <separator name="solvation model" >
   <i type="logical" name="LSOL"> F  </i>
  </separator>
 </parameters>
 <atominfo>
  <atoms>      72 </atoms>
  <types>       4 </types>
  <array name="atoms" >
   <dimension dim="1">ion</dimension>
   <field type="string">element</field>
   <field type="int">atomtype</field>
   <set>
    <rc><c>N </c><c>   1</c></rc>
    <rc><c>N </c><c>   1</c></rc>
    <rc><c>N </c><c>   1</c></rc>
    <rc><c>N </c><c>   1</c></rc>
    <rc><c>N </c><c>   1</c></rc>
    <rc><c>N </c><c>   1</c></rc>
    <rc><c>N </c><c>   1</c></rc>
    <rc><c>N </c><c>   1</c></rc>
    <rc><c>N </c><c>   1</c></rc>
    <rc><c>N </c><c>   1</c></rc>
    <rc><c>N </c><c>   1</c></rc>
    <rc><c>N </c><c>   1</c></rc>
    <rc><c>N </c><c>   1</c></rc>
    <rc><c>N </c><c>   1</c></rc>
    <rc><c>N </c><c>   1</c></rc>
    <rc><c>C </c><c>   2</c></rc>
    <rc><c>C </c><c>   2</c></rc>
    <rc><c>C </c><c>   2</c></rc>
    <rc><c>C </c><c>   2</c></rc>
    <rc><c>C </c><c>   2</c></rc>
    <rc><c>C </c><c>   2</c></rc>
    <rc><c>C </c><c>   2</c></rc>
    <rc><c>C </c><c>   2</c></rc>
    <rc><c>C </c><c>   2</c></rc>
    <rc><c>C </c><c>   2</c></rc>
    <rc><c>C </c><c>   2</c></rc>
    <rc><c>C </c><c>   2</c></rc>
    <rc><c>C </c><c>   2</c></rc>
    <rc><c>C </c><c>   2</c></rc>
    <rc><c>C </c><c>   2</c></rc>
    <rc><c>C </c><c>   2</c></rc>
    <rc><c>C </c><c>   2</c></rc>
    <rc><c>C </c><c>   2</c></rc>
    <rc><c>C </c><c>   2</c></rc>
    <rc><c>C </c><c>   2</c></rc>
    <rc><c>C </c><c>   2</c></rc>
    <rc><c>C </c><c>   2</c></rc>
    <rc><c>C </c><c>   2</c></rc>
    <rc><c>C </c><c>   2</c></rc>
    <rc><c>C </c><c>   2</c></rc>
    <rc><c>C </c><c>   2</c></rc>
    <rc><c>C </c><c>   2</c></rc>
    <rc><c>C </c><c>   2</c></rc>
    <rc><c>C </c><c>   2</c></rc>
    <rc><c>C </c><c>   2</c></rc>
    <rc><c>O </c><c>   3</c></rc>
    <rc><c>O </c><c>   3</c></rc>
    <rc><c>O </c><c>   3</c></rc>
    <rc><c>O </c><c>   3</c></rc>
    <rc><c>O </c><c>   3</c></rc>
    <rc><c>O </c><c>   3</c></rc>
    <rc><c>O </c><c>   3</c></rc>
    <rc><c>O </c><c>   3</c></rc>
    <rc><c>O </c><c>   3</c></rc>
    <rc><c>O </c><c>   3</c></rc>
    <rc><c>O </c><c>   3</c></rc>
    <rc><c>O </c><c>   3</c></rc>
    <rc><c>H </c><c>   4</c></rc>
    <rc><c>H </c><c>   4</c></rc>
    <rc><c>H </c><c>   4</c></rc>
    <rc><c>H </c><c>   4</c></rc>
    <rc><c>H </c><c>   4</c></rc>
    <rc><c>H </c><c>   4</c></rc>
    <rc><c>H </c><c>   4</c></rc>
    <rc><c>H </c><c>   4</c></rc>
    <rc><c>H </c><c>   4</c></rc>
    <rc><c>H </c><c>   4</c></rc>
    <rc><c>H </c><c>   4</c></rc>
    <rc><c>H </c><c>   4</c></rc>
    <rc><c>H </c><c>   4</c></rc>
    <rc><c>H </c><c>   4</c></rc>
    <rc><c>H </c><c>   4</c></rc>
   </set>
  </array>
  <array name="atomtypes" >
   <dimension dim="1">type</dimension>
   <field type="int">atomspertype</field>
   <field type="string">element</field>
   <field>mass</field>
   <field>valence</field>
   <field type="string">pseudopotential</field>
   <set>
    <rc><c>  15</c><c>N </c><c>     14.00100000</c><c>      5.00000000</c><c>  PAW_PBE N 08Apr2002                   </c></rc>
    <rc><c>  30</c><c>C </c><c>     12.01100000</c><c>      4.00000000</c><c>  PAW_PBE C 08Apr2002                   </c></rc>
    <rc><c>  12</c><c>O </c><c>     16.00000000</c><c>      6.00000000</c><c>  PAW_PBE O 08Apr2002                   </c></rc>
    <rc><c>  15</c><c>H </c><c>      1.00000000</c><c>      1.00000000</c><c>  PAW_PBE H 15Jun2001                   </c></rc>
   </set>
  </array>
 </atominfo>
 <structure name="initialpos" >
  <crystal>
   <varray name="basis" >
    <v>      21.90817103      -0.03084870       0.00000000 </v>
    <v>     -10.98078574      19.07667758       0.00000000 </v>
    <v>       0.00000000       0.00000000      20.00000000 </v>
   </varray>
   <i name="volume">   8351.92744258 </i>
   <varray name="rec_basis" >
    <v>       0.04568210       0.02629521       0.00000000 </v>
    <v>       0.00007387       0.05246255       0.00000000 </v>
    <v>       0.00000000       0.00000000       0.05000000 </v>
   </varray>
  </crystal>
  <varray name="positions" >
   <v>       0.51021310       0.94859275       0.52564831 </v>
   <v>       0.60993566       0.03030292       0.58685261 </v>
   <v>       0.56819877       0.13506837       0.54743866 </v>
   <v>       0.42947429       0.48363655       0.52505982 </v>
   <v>       0.41024062       0.38489564       0.58820019 </v>
   <v>       0.55660603       0.42343017       0.54943564 </v>
   <v>       0.04573600       0.56294526       0.52510174 </v>
   <v>       0.96535989       0.58050920       0.58923948 </v>
   <v>       0.85811247       0.43541901       0.54805627 </v>
   <v>       0.47128964       0.04653205       0.48969023 </v>
   <v>       0.41233218       0.86043519       0.46763191 </v>
   <v>       0.56610626       0.51941288       0.48967360 </v>
   <v>       0.44079380       0.58135682       0.46609070 </v>
   <v>       0.94527620       0.42794390       0.48663936 </v>
   <v>       0.13286841       0.55343956       0.46493345 </v>
   <v>       0.35191962       0.61622674       0.44980325 </v>
   <v>       0.27977297       0.59396171       0.44913910 </v>
   <v>       0.25653851       0.64255819       0.44966758 </v>
   <v>       0.30628900       0.71436226       0.45011106 </v>
   <v>       0.40076532       0.68798726       0.45036091 </v>
   <v>       0.37010401       0.55885682       0.45460482 </v>
   <v>       0.18066242       0.62411460       0.45464271 </v>
   <v>       0.64243454       0.38365311       0.55409031 </v>
   <v>       0.71359621       0.40171583       0.55385870 </v>
   <v>       0.73233653       0.34970902       0.55283117 </v>
   <v>       0.67929315       0.27886174       0.55235981 </v>
   <v>       0.59014257       0.31298953       0.55352205 </v>
   <v>       0.62818997       0.44357603       0.54931460 </v>
   <v>       0.80681754       0.36414555       0.54658073 </v>
   <v>       0.52864078       0.06606741       0.52818327 </v>
   <v>       0.54728839       0.01458229       0.54490601 </v>
   <v>       0.52767311       0.46322095       0.52900137 </v>
   <v>       0.45763188       0.44608845       0.54528126 </v>
   <v>       0.92705342       0.46499184       0.52744146 </v>
   <v>       0.97974455       0.53433442       0.54516113 </v>
   <v>       0.37836499       0.73752286       0.45079367 </v>
   <v>       0.43566537       0.81304794       0.45656856 </v>
   <v>       0.60826665       0.26021384       0.55264087 </v>
   <v>       0.54797876       0.18615598       0.54657852 </v>
   <v>       0.43482999       0.98064179       0.46960821 </v>
   <v>       0.45389408       0.93025126       0.48775392 </v>
   <v>       0.53743221       0.55638236       0.46864345 </v>
   <v>       0.46818458       0.53904343       0.48666383 </v>
   <v>       0.01114877       0.45715570       0.46562815 </v>
   <v>       0.06284691       0.52549916       0.48532528 </v>
   <v>       0.49826654       0.83052184       0.45326564 </v>
   <v>       0.32481643       0.49668939       0.45031584 </v>
   <v>       0.16321817       0.66905442       0.45153165 </v>
   <v>       0.48687781       0.17288715       0.54061809 </v>
   <v>       0.67589576       0.50457798       0.54463011 </v>
   <v>       0.82042961       0.31687221       0.53979818 </v>
   <v>       0.65282895       0.09385803       0.59888763 </v>
   <v>       0.61619525       0.98122114       0.60734423 </v>
   <v>       0.42913933       0.34048823       0.59937576 </v>
   <v>       0.35637171       0.38137813       0.61030059 </v>
   <v>       0.90174892       0.56120048       0.60053414 </v>
   <v>       0.01545701       0.63391530       0.61198300 </v>
   <v>       0.28456322       0.74947038       0.45130795 </v>
   <v>       0.45774200       0.70950766       0.45187360 </v>
   <v>       0.24443623       0.53722051       0.44962658 </v>
   <v>       0.69687491       0.24047188       0.54940946 </v>
   <v>       0.53394766       0.29546238       0.55140382 </v>
   <v>       0.75215203       0.45766694       0.55208229 </v>
   <v>       0.61536862       0.14600293       0.56838487 </v>
   <v>       0.51993383       0.37638886       0.56976769 </v>
   <v>       0.84739204       0.47127279       0.56970362 </v>
   <v>       0.38926636       0.96674468       0.43739364 </v>
   <v>       0.36043471       0.84356485       0.46051833 </v>
   <v>       0.56953843       0.60090621       0.43571595 </v>
   <v>       0.47624681       0.63301679       0.45981398 </v>
   <v>       0.02393791       0.42626807       0.43141311 </v>
   <v>       0.14954663       0.51848042       0.45756148 </v>
  </varray>
 </structure>
 <calculation>
  <scstep>
   <time name="dav">  244.54  247.15</time>
   <time name="total">  244.67  247.29</time>
   <energy>
    <i name="alphaZ">     42.33378553 </i>
    <i name="ewald">  32215.08510222 </i>
    <i name="hartreedc"> -43571.54329614 </i>
    <i name="XCdc">   1098.80885740 </i>
    <i name="pawpsdc">  26845.01677109 </i>
    <i name="pawaedc"> -26910.29365272 </i>
    <i name="eentropy">     -0.00000000 </i>
    <i name="bandstr">  -3997.32305953 </i>
    <i name="atom">  13758.04905537 </i>
    <i name="e_fr_energy">   -519.86643679 </i>
    <i name="e_wo_entrp">   -519.86643679 </i>
    <i name="e_0_energy">   -519.86643679 </i>
   </energy>
  </scstep>
  <scstep>
   <time name="dav">  283.00  285.99</time>
   <time name="total">  283.01  285.99</time>
   <energy>
    <i name="e_fr_energy">   -520.67538250 </i>
    <i name="e_wo_entrp">   -520.67538250 </i>
    <i name="e_0_energy">   -520.67538250 </i>
   </energy>
  </scstep>
  <scstep>
   <time name="dav">  310.01  313.30</time>
   <time name="total">  310.01  313.30</time>
   <energy>
    <i name="e_fr_energy">   -520.69465938 </i>
    <i name="e_wo_entrp">   -520.69465938 </i>
    <i name="e_0_energy">   -520.69465938 </i>
   </energy>
  </scstep>
  <scstep>
   <time name="dav">  280.98  283.94</time>
   <time name="total">  280.99  283.94</time>
   <energy>
    <i name="e_fr_energy">   -520.69504291 </i>
    <i name="e_wo_entrp">   -520.69504291 </i>
    <i name="e_0_energy">   -520.69504291 </i>
   </energy>
  </scstep>
  <scstep>
   <time name="dav">  262.89  265.66</time>
   <time name="total">  262.89  265.67</time>
   <energy>
    <i name="e_fr_energy">   -520.69506013 </i>
    <i name="e_wo_entrp">   -520.69506013 </i>
    <i name="e_0_energy">   -520.69506013 </i>
   </energy>
  </scstep>
  <scstep>
   <time name="dav">  220.54  222.88</time>
   <time name="total">  220.54  222.89</time>
   <energy>
    <i name="alphaZ">     42.33378553 </i>
    <i name="ewald">  32215.08510222 </i>
    <i name="hartreedc"> -43571.54329614 </i>
    <i name="XCdc">   1098.80885740 </i>
    <i name="pawpsdc">  26845.01677109 </i>
    <i name="pawaedc"> -26910.29365272 </i>
    <i name="eentropy">     -0.00000000 </i>
    <i name="bandstr">  -3998.15168367 </i>
    <i name="atom">  13758.04905537 </i>
    <i name="e_fr_energy">   -520.69506093 </i>
    <i name="e_wo_entrp">   -520.69506093 </i>
    <i name="e_0_energy">   -520.69506093 </i>
   </energy>
  </scstep>
  <structure>
   <crystal>
    <varray name="basis" >
     <v>      21.90817103      -0.03084870       0.00000000 </v>
     <v>     -10.98078574      19.07667758       0.00000000 </v>
     <v>       0.00000000       0.00000000      20.00000000 </v>
    </varray>
    <i name="volume">   8351.92744258 </i>
    <varray name="rec_basis" >
     <v>       0.04568210       0.02629521       0.00000000 </v>
     <v>       0.00007387       0.05246255       0.00000000 </v>
     <v>       0.00000000       0.00000000       0.05000000 </v>
    </varray>
   </crystal>
   <varray name="positions" >
    <v>       0.51021310       0.94859275       0.52564831 </v>
    <v>       0.60993566       0.03030292       0.58685261 </v>
    <v>       0.56819877       0.13506837       0.54743866 </v>
    <v>       0.42947429       0.48363655       0.52505982 </v>
    <v>       0.41024062       0.38489564       0.58820019 </v>
    <v>       0.55660603       0.42343017       0.54943564 </v>
    <v>       0.04573600       0.56294526       0.52510174 </v>
    <v>       0.96535989       0.58050920       0.58923948 </v>
    <v>       0.85811247       0.43541901       0.54805627 </v>
    <v>       0.47128964       0.04653205       0.48969023 </v>
    <v>       0.41233218       0.86043519       0.46763191 </v>
    <v>       0.56610626       0.51941288       0.48967360 </v>
    <v>       0.44079380       0.58135682       0.46609070 </v>
    <v>       0.94527620       0.42794390       0.48663936 </v>
    <v>       0.13286841       0.55343956       0.46493345 </v>
    <v>       0.35191962       0.61622674       0.44980325 </v>
    <v>       0.27977297       0.59396171       0.44913910 </v>
    <v>       0.25653851       0.64255819       0.44966758 </v>
    <v>       0.30628900       0.71436226       0.45011106 </v>
    <v>       0.40076532       0.68798726       0.45036091 </v>
    <v>       0.37010401       0.55885682       0.45460482 </v>
    <v>       0.18066242       0.62411460       0.45464271 </v>
    <v>       0.64243454       0.38365311       0.55409031 </v>
    <v>       0.71359621       0.40171583       0.55385870 </v>
    <v>       0.73233653       0.34970902       0.55283117 </v>
    <v>       0.67929315       0.27886174       0.55235981 </v>
    <v>       0.59014257       0.31298953       0.55352205 </v>
    <v>       0.62818997       0.44357603       0.54931460 </v>
    <v>       0.80681754       0.36414555       0.54658073 </v>
    <v>       0.52864078       0.06606741       0.52818327 </v>
    <v>       0.54728839       0.01458229       0.54490601 </v>
    <v>       0.52767311       0.46322095       0.52900137 </v>
    <v>       0.45763188       0.44608845       0.54528126 </v>
    <v>       0.92705342       0.46499184       0.52744146 </v>
    <v>       0.97974455       0.53433442       0.54516113 </v>
    <v>       0.37836499       0.73752286       0.45079367 </v>
    <v>       0.43566537       0.81304794       0.45656856 </v>
    <v>       0.60826665       0.26021384       0.55264087 </v>
    <v>       0.54797876       0.18615598       0.54657852 </v>
    <v>       0.43482999       0.98064179       0.46960821 </v>
    <v>       0.45389408       0.93025126       0.48775392 </v>
    <v>       0.53743221       0.55638236       0.46864345 </v>
    <v>       0.46818458       0.53904343       0.48666383 </v>
    <v>       0.01114877       0.45715570       0.46562815 </v>
    <v>       0.06284691       0.52549916       0.48532528 </v>
    <v>       0.49826654       0.83052184       0.45326564 </v>
    <v>       0.32481643       0.49668939       0.45031584 </v>
    <v>       0.16321817       0.66905442       0.45153165 </v>
    <v>       0.48687781       0.17288715       0.54061809 </v>
    <v>       0.67589576       0.50457798       0.54463011 </v>
    <v>       0.82042961       0.31687221       0.53979818 </v>
    <v>       0.65282895       0.09385803       0.59888763 </v>
    <v>       0.61619525       0.98122114       0.60734423 </v>
    <v>       0.42913933       0.34048823       0.59937576 </v>
    <v>       0.35637171       0.38137813       0.61030059 </v>
    <v>       0.90174892       0.56120048       0.60053414 </v>
    <v>       0.01545701       0.63391530       0.61198300 </v>
    <v>       0.28456322       0.74947038       0.45130795 </v>
    <v>       0.45774200       0.70950766       0.45187360 </v>
    <v>       0.24443623       0.53722051       0.44962658 </v>
    <v>       0.69687491       0.24047188       0.54940946 </v>
    <v>       0.53394766       0.29546238       0.55140382 </v>
    <v>       0.75215203       0.45766694       0.55208229 </v>
    <v>       0.61536862       0.14600293       0.56838487 </v>
    <v>       0.51993383       0.37638886       0.56976769 </v>
    <v>       0.84739204       0.47127279       0.56970362 </v>
    <v>       0.38926636       0.96674468       0.43739364 </v>
    <v>       0.36043471       0.84356485       0.46051833 </v>
    <v>       0.56953843       0.60090621       0.43571595 </v>
    <v>       0.47624681       0.63301679       0.45981398 </v>
    <v>       0.02393791       0.42626807       0.43141311 </v>
    <v>       0.14954663       0.51848042       0.45756148 </v>
   </varray>
  </structure>
  <varray name="forces" >
   <v>       0.00198064       0.00087135       0.00234787 </v>
   <v>      -0.00235233       0.00964776      -0.00171827 </v>
   <v>       0.00359311       0.00395855       0.00438892 </v>
   <v>      -0.00180670       0.00177981       0.00150646 </v>
   <v>      -0.00044279      -0.00034663      -0.00203958 </v>
   <v>       0.00051058       0.00409271      -0.00095454 </v>
   <v>      -0.00002553      -0.00002074       0.00193968 </v>
   <v>      -0.00017403       0.00255751       0.00359207 </v>
   <v>       0.00026732       0.00317184      -0.00277338 </v>
   <v>      -0.00510394       0.00024837       0.00100397 </v>
   <v>      -0.00219932      -0.00238102      -0.00074030 </v>
   <v>       0.00152317       0.00163188      -0.00121538 </v>
   <v>       0.00140135       0.00179208      -0.00065843 </v>
   <v>      -0.00321549      -0.00012624       0.00155949 </v>
   <v>       0.00099306      -0.00351019      -0.00014239 </v>
   <v>       0.00125486       0.00076315       0.00187722 </v>
   <v>      -0.00006179       0.00193416      -0.00053701 </v>
   <v>      -0.00183053      -0.00078992       0.00018811 </v>
   <v>       0.00077986      -0.00107528       0.00024302 </v>
   <v>       0.00106009      -0.00360005       0.00114433 </v>
   <v>      -0.00027371      -0.00103362       0.00213550 </v>
   <v>      -0.00035481       0.00405019      -0.00006773 </v>
   <v>       0.00039874      -0.00330005      -0.00023413 </v>
   <v>      -0.00021904      -0.00041637      -0.00286551 </v>
   <v>       0.00041096      -0.00152148      -0.00077479 </v>
   <v>      -0.00187324      -0.00129846      -0.00008875 </v>
   <v>       0.00303001      -0.00280234      -0.00193147 </v>
   <v>      -0.00228911       0.00328882      -0.00041236 </v>
   <v>       0.00523921      -0.00589073      -0.00132579 </v>
   <v>       0.00371213      -0.00089756       0.00313104 </v>
   <v>       0.00091637      -0.00147248      -0.00128125 </v>
   <v>      -0.00018331      -0.00425886       0.00113506 </v>
   <v>       0.00310724       0.00096509       0.00117445 </v>
   <v>      -0.00010319      -0.00194679       0.00288057 </v>
   <v>      -0.00030151      -0.00017807      -0.00295509 </v>
   <v>       0.00061562       0.00381622       0.00157080 </v>
   <v>       0.00311394       0.00108766       0.00259078 </v>
   <v>       0.00064072      -0.00230856      -0.00283505 </v>
   <v>      -0.00118188      -0.00007748      -0.00124242 </v>
   <v>       0.00107409      -0.00131717      -0.00212746 </v>
   <v>      -0.00103163      -0.00019975      -0.00297105 </v>
   <v>      -0.00140667       0.00067405      -0.00413762 </v>
   <v>       0.00297521      -0.00191186      -0.00053927 </v>
   <v>      -0.00097886       0.00239176       0.00234912 </v>
   <v>       0.00490214       0.00434346       0.00153293 </v>
   <v>      -0.00097425       0.00082551       0.00025870 </v>
   <v>      -0.00140465       0.00026631       0.00155828 </v>
   <v>       0.00508012      -0.00543015       0.00381268 </v>
   <v>       0.00081373       0.00063909      -0.00263808 </v>
   <v>       0.00137306      -0.00039388      -0.00090750 </v>
   <v>      -0.00654820       0.00608770      -0.00033505 </v>
   <v>      -0.00328766      -0.00762392      -0.00121016 </v>
   <v>       0.00080816      -0.00211097      -0.00112444 </v>
   <v>       0.00392813      -0.00134930      -0.00019644 </v>
   <v>      -0.00346272      -0.00203150       0.00196786 </v>
   <v>       0.00077768      -0.00358794       0.00221796 </v>
   <v>       0.00208985      -0.00561351       0.00027747 </v>
   <v>      -0.00073555       0.00041746       0.00240228 </v>
   <v>       0.00102563       0.00117357       0.00026050 </v>
   <v>      -0.00021137       0.00055060       0.00124061 </v>
   <v>      -0.00149100       0.00328789      -0.00189520 </v>
   <v>      -0.00220422       0.00211969       0.00053072 </v>
   <v>      -0.00046735       0.00322567      -0.00095940 </v>
   <v>      -0.00646163      -0.00159892      -0.00403072 </v>
   <v>       0.00033690       0.00229430      -0.00146790 </v>
   <v>       0.00013214       0.00082071      -0.00044197 </v>
   <v>      -0.00079157      -0.00201565      -0.00105714 </v>
   <v>       0.00235073       0.00253561       0.00044991 </v>
   <v>      -0.00063858      -0.00010283       0.00042822 </v>
   <v>      -0.00100750      -0.00441052      -0.00034853 </v>
   <v>      -0.00109286      -0.00157536      -0.00011232 </v>
   <v>      -0.00402800       0.00321562      -0.00040271 </v>
  </varray>
  <varray name="stress" >
   <v>       0.14979831       0.00424489      -0.00816390 </v>
   <v>       0.00424489       0.09078708      -0.00768362 </v>
   <v>      -0.00816390      -0.00768362      -0.28461529 </v>
  </varray>
  <energy>
   <i name="e_fr_energy">   -522.19736178 </i>
   <i name="e_wo_entrp">   -522.19736178 </i>
   <i name="e_0_energy">     -0.00000000 </i>
  </energy>
  <time name="totalsc"> 1888.37 1909.13</time>
  <eigenvalues>
   <array>
    <dimension dim="1">band</dimension>
    <dimension dim="2">kpoint</dimension>
    <dimension dim="3">spin</dimension>
    <field>eigene</field>
    <field>occ</field>
    <set>
     <set comment="spin 1">
      <set comment="kpoint 1">
       <r>  -30.8367    1.0000 </r>
       <r>  -30.8361    1.0000 </r>
       <r>  -30.8344    1.0000 </r>
       <r>  -26.5615    1.0000 </r>
       <r>  -26.5479    1.0000 </r>
       <r>  -26.5466    1.0000 </r>
       <r>  -26.5067    1.0000 </r>
       <r>  -26.5018    1.0000 </r>
       <r>  -26.4987    1.0000 </r>
       <r>  -26.3794    1.0000 </r>
       <r>  -26.3709    1.0000 </r>
       <r>  -26.3653    1.0000 </r>
       <r>  -25.5942    1.0000 </r>
       <r>  -25.5912    1.0000 </r>
       <r>  -25.5903    1.0000 </r>
       <r>  -24.3760    1.0000 </r>
       <r>  -24.3708    1.0000 </r>
       <r>  -24.3671    1.0000 </r>
       <r>  -23.5705    1.0000 </r>
       <r>  -23.5631    1.0000 </r>
       <r>  -23.5605    1.0000 </r>
       <r>  -23.0900    1.0000 </r>
       <r>  -23.0797    1.0000 </r>
       <r>  -23.0760    1.0000 </r>
       <r>  -22.2998    1.0000 </r>
       <r>  -22.0437    1.0000 </r>
       <r>  -20.4782    1.0000 </r>
       <r>  -20.4760    1.0000 </r>
       <r>  -20.2415    1.0000 </r>
       <r>  -19.7774    1.0000 </r>
       <r>  -19.7759    1.0000 </r>
       <r>  -19.4725    1.0000 </r>
       <r>  -19.4711    1.0000 </r>
       <r>  -18.4629    1.0000 </r>
       <r>  -18.3846    1.0000 </r>
       <r>  -18.3822    1.0000 </r>
       <r>  -17.8449    1.0000 </r>
       <r>  -17.6848    1.0000 </r>
       <r>  -17.6786    1.0000 </r>
       <r>  -16.6931    1.0000 </r>
       <r>  -16.6914    1.0000 </r>
       <r>  -16.5072    1.0000 </r>
       <r>  -16.1105    1.0000 </r>
       <r>  -16.1079    1.0000 </r>
       <r>  -15.9284    1.0000 </r>
       <r>  -15.9275    1.0000 </r>
       <r>  -15.8874    1.0000 </r>
       <r>  -15.3557    1.0000 </r>
       <r>  -15.3543    1.0000 </r>
       <r>  -15.3480    1.0000 </r>
       <r>  -15.0506    1.0000 </r>
       <r>  -14.5606    1.0000 </r>
       <r>  -14.5603    1.0000 </r>
       <r>  -14.2515    1.0000 </r>
       <r>  -14.2458    1.0000 </r>
       <r>  -14.1957    1.0000 </r>
       <r>  -13.8696    1.0000 </r>
       <r>  -13.8683    1.0000 </r>
       <r>  -13.8538    1.0000 </r>
       <r>  -13.5905    1.0000 </r>
       <r>  -13.3047    1.0000 </r>
       <r>  -13.2779    1.0000 </r>
       <r>  -13.2762    1.0000 </r>
       <r>  -13.2329    1.0000 </r>
       <r>  -13.2284    1.0000 </r>
       <r>  -13.1896    1.0000 </r>
       <r>  -12.9943    1.0000 </r>
       <r>  -12.9883    1.0000 </r>
       <r>  -12.9801    1.0000 </r>
       <r>  -12.5064    1.0000 </r>
       <r>  -12.3429    1.0000 </r>
       <r>  -12.2177    1.0000 </r>
       <r>  -12.2106    1.0000 </r>
       <r>  -12.0770    1.0000 </r>
       <r>  -11.8485    1.0000 </r>
       <r>  -11.8479    1.0000 </r>
       <r>  -11.8121    1.0000 </r>
       <r>  -11.8080    1.0000 </r>
       <r>  -11.8007    1.0000 </r>
       <r>  -11.6938    1.0000 </r>
       <r>  -11.4319    1.0000 </r>
       <r>  -11.3910    1.0000 </r>
       <r>  -11.3782    1.0000 </r>
       <r>  -11.2199    1.0000 </r>
       <r>  -11.2124    1.0000 </r>
       <r>  -11.2117    1.0000 </r>
       <r>  -11.0836    1.0000 </r>
       <r>  -10.8982    1.0000 </r>
       <r>  -10.8852    1.0000 </r>
       <r>  -10.7576    1.0000 </r>
       <r>  -10.5607    1.0000 </r>
       <r>  -10.5552    1.0000 </r>
       <r>  -10.4087    1.0000 </r>
       <r>  -10.4045    1.0000 </r>
       <r>  -10.3187    1.0000 </r>
       <r>  -10.1814    1.0000 </r>
       <r>  -10.1768    1.0000 </r>
       <r>  -10.1749    1.0000 </r>
       <r>   -9.7488    1.0000 </r>
       <r>   -9.3919    1.0000 </r>
       <r>   -9.3908    1.0000 </r>
       <r>   -9.1991    1.0000 </r>
       <r>   -9.1746    1.0000 </r>
       <r>   -9.1719    1.0000 </r>
       <r>   -9.0809    1.0000 </r>
       <r>   -9.0770    1.0000 </r>
       <r>   -8.8104    1.0000 </r>
       <r>   -8.4123    1.0000 </r>
       <r>   -8.4053    1.0000 </r>
       <r>   -8.3162    1.0000 </r>
       <r>   -7.8075    1.0000 </r>
       <r>   -7.8059    1.0000 </r>
       <r>   -7.8030    1.0000 </r>
       <r>   -7.7716    1.0000 </r>
       <r>   -7.7672    1.0000 </r>
       <r>   -7.7624    1.0000 </r>
       <r>   -7.5005    1.0000 </r>
       <r>   -7.4970    1.0000 </r>
       <r>   -7.4857    1.0000 </r>
       <r>   -7.4620    1.0000 </r>
       <r>   -7.4595    1.0000 </r>
       <r>   -7.3903    1.0000 </r>
       <r>   -7.1317    1.0000 </r>
       <r>   -7.1310    1.0000 </r>
       <r>   -6.9953    1.0000 </r>
       <r>   -6.9898    1.0000 </r>
       <r>   -6.9866    1.0000 </r>
       <r>   -6.8947    1.0000 </r>
       <r>   -6.8917    1.0000 </r>
       <r>   -6.7175    1.0000 </r>
       <r>   -6.6992    1.0000 </r>
       <r>   -6.6972    1.0000 </r>
       <r>   -6.4305    1.0000 </r>
       <r>   -6.2392    1.0000 </r>
       <r>   -6.2341    1.0000 </r>
       <r>   -6.0470    1.0000 </r>
       <r>   -5.9737    1.0000 </r>
       <r>   -5.9688    1.0000 </r>
       <r>   -5.8858    1.0000 </r>
       <r>   -5.7687    1.0000 </r>
       <r>   -5.7656    1.0000 </r>
       <r>   -3.7445    0.0000 </r>
       <r>   -3.7380    0.0000 </r>
       <r>   -3.7331    0.0000 </r>
       <r>   -3.1614    0.0000 </r>
       <r>   -3.1603    0.0000 </r>
       <r>   -2.8098    0.0000 </r>
       <r>   -2.8034    0.0000 </r>
       <r>   -2.7587    0.0000 </r>
       <r>   -2.1708    0.0000 </r>
       <r>   -2.1653    0.0000 </r>
       <r>   -1.9659    0.0000 </r>
       <r>   -1.5714    0.0000 </r>
       <r>   -1.5305    0.0000 </r>
       <r>   -1.5234    0.0000 </r>
       <r>   -0.8864    0.0000 </r>
       <r>   -0.7422    0.0000 </r>
       <r>   -0.4528    0.0000 </r>
       <r>   -0.4481    0.0000 </r>
       <r>   -0.2134    0.0000 </r>
       <r>    0.1185    0.0000 </r>
       <r>    0.1229    0.0000 </r>
       <r>    0.2688    0.0000 </r>
       <r>    0.2772    0.0000 </r>
       <r>    0.2814    0.0000 </r>
       <r>    0.3249    0.0000 </r>
       <r>    0.4797    0.0000 </r>
       <r>    0.5351    0.0000 </r>
       <r>    0.5410    0.0000 </r>
       <r>    0.6244    0.0000 </r>
       <r>    0.6938    0.0000 </r>
       <r>    0.6945    0.0000 </r>
       <r>    0.7384    0.0000 </r>
       <r>    0.7412    0.0000 </r>
       <r>    0.7875    0.0000 </r>
       <r>    0.8742    0.0000 </r>
       <r>    0.8768    0.0000 </r>
       <r>    0.9147    0.0000 </r>
       <r>    0.9540    0.0000 </r>
       <r>    0.9722    0.0000 </r>
       <r>    0.9781    0.0000 </r>
       <r>    1.0921    0.0000 </r>
       <r>    1.1242    0.0000 </r>
       <r>    1.1276    0.0000 </r>
       <r>    1.1676    0.0000 </r>
       <r>    1.1685    0.0000 </r>
       <r>    1.1942    0.0000 </r>
       <r>    1.2227    0.0000 </r>
       <r>    1.3015    0.0000 </r>
       <r>    1.3352    0.0000 </r>
       <r>    1.3408    0.0000 </r>
       <r>    1.3607    0.0000 </r>
      </set>
      <set comment="kpoint 2">
       <r>  -30.8367    1.0000 </r>
       <r>  -30.8361    1.0000 </r>
       <r>  -30.8344    1.0000 </r>
       <r>  -26.5615    1.0000 </r>
       <r>  -26.5479    1.0000 </r>
       <r>  -26.5466    1.0000 </r>
       <r>  -26.5067    1.0000 </r>
       <r>  -26.5018    1.0000 </r>
       <r>  -26.4987    1.0000 </r>
       <r>  -26.3794    1.0000 </r>
       <r>  -26.3709    1.0000 </r>
       <r>  -26.3653    1.0000 </r>
       <r>  -25.5942    1.0000 </r>
       <r>  -25.5912    1.0000 </r>
       <r>  -25.5903    1.0000 </r>
       <r>  -24.3760    1.0000 </r>
       <r>  -24.3708    1.0000 </r>
       <r>  -24.3671    1.0000 </r>
       <r>  -23.5705    1.0000 </r>
       <r>  -23.5631    1.0000 </r>
       <r>  -23.5605    1.0000 </r>
       <r>  -23.0900    1.0000 </r>
       <r>  -23.0797    1.0000 </r>
       <r>  -23.0760    1.0000 </r>
       <r>  -22.2998    1.0000 </r>
       <r>  -22.0437    1.0000 </r>
       <r>  -20.4782    1.0000 </r>
       <r>  -20.4758    1.0000 </r>
       <r>  -20.2420    1.0000 </r>
       <r>  -19.7774    1.0000 </r>
       <r>  -19.7754    1.0000 </r>
       <r>  -19.4726    1.0000 </r>
       <r>  -19.4712    1.0000 </r>
       <r>  -18.4628    1.0000 </r>
       <r>  -18.3847    1.0000 </r>
       <r>  -18.3823    1.0000 </r>
       <r>  -17.8446    1.0000 </r>
       <r>  -17.6848    1.0000 </r>
       <r>  -17.6787    1.0000 </r>
       <r>  -16.6930    1.0000 </r>
       <r>  -16.6914    1.0000 </r>
       <r>  -16.5075    1.0000 </r>
       <r>  -16.1104    1.0000 </r>
       <r>  -16.1078    1.0000 </r>
       <r>  -15.9302    1.0000 </r>
       <r>  -15.9277    1.0000 </r>
       <r>  -15.8849    1.0000 </r>
       <r>  -15.3645    1.0000 </r>
       <r>  -15.3552    1.0000 </r>
       <r>  -15.3384    1.0000 </r>
       <r>  -15.0507    1.0000 </r>
       <r>  -14.5605    1.0000 </r>
       <r>  -14.5602    1.0000 </r>
       <r>  -14.2519    1.0000 </r>
       <r>  -14.2486    1.0000 </r>
       <r>  -14.1926    1.0000 </r>
       <r>  -13.8697    1.0000 </r>
       <r>  -13.8683    1.0000 </r>
       <r>  -13.8538    1.0000 </r>
       <r>  -13.5905    1.0000 </r>
       <r>  -13.3048    1.0000 </r>
       <r>  -13.2779    1.0000 </r>
       <r>  -13.2762    1.0000 </r>
       <r>  -13.2329    1.0000 </r>
       <r>  -13.2285    1.0000 </r>
       <r>  -13.1894    1.0000 </r>
       <r>  -12.9945    1.0000 </r>
       <r>  -12.9882    1.0000 </r>
       <r>  -12.9801    1.0000 </r>
       <r>  -12.5064    1.0000 </r>
       <r>  -12.3429    1.0000 </r>
       <r>  -12.2176    1.0000 </r>
       <r>  -12.2106    1.0000 </r>
       <r>  -12.0770    1.0000 </r>
       <r>  -11.8486    1.0000 </r>
       <r>  -11.8479    1.0000 </r>
       <r>  -11.8123    1.0000 </r>
       <r>  -11.8081    1.0000 </r>
       <r>  -11.8003    1.0000 </r>
       <r>  -11.6938    1.0000 </r>
       <r>  -11.4319    1.0000 </r>
       <r>  -11.3910    1.0000 </r>
       <r>  -11.3783    1.0000 </r>
       <r>  -11.2199    1.0000 </r>
       <r>  -11.2126    1.0000 </r>
       <r>  -11.2112    1.0000 </r>
       <r>  -11.0838    1.0000 </r>
       <r>  -10.8982    1.0000 </r>
       <r>  -10.8856    1.0000 </r>
       <r>  -10.7569    1.0000 </r>
       <r>  -10.5608    1.0000 </r>
       <r>  -10.5552    1.0000 </r>
       <r>  -10.4088    1.0000 </r>
       <r>  -10.4046    1.0000 </r>
       <r>  -10.3187    1.0000 </r>
       <r>  -10.1814    1.0000 </r>
       <r>  -10.1770    1.0000 </r>
       <r>  -10.1751    1.0000 </r>
       <r>   -9.7481    1.0000 </r>
       <r>   -9.3921    1.0000 </r>
       <r>   -9.3908    1.0000 </r>
       <r>   -9.2038    1.0000 </r>
       <r>   -9.1741    1.0000 </r>
       <r>   -9.1681    1.0000 </r>
       <r>   -9.0808    1.0000 </r>
       <r>   -9.0767    1.0000 </r>
       <r>   -8.8105    1.0000 </r>
       <r>   -8.4123    1.0000 </r>
       <r>   -8.4052    1.0000 </r>
       <r>   -8.3163    1.0000 </r>
       <r>   -7.8075    1.0000 </r>
       <r>   -7.8059    1.0000 </r>
       <r>   -7.8029    1.0000 </r>
       <r>   -7.7716    1.0000 </r>
       <r>   -7.7672    1.0000 </r>
       <r>   -7.7624    1.0000 </r>
       <r>   -7.5005    1.0000 </r>
       <r>   -7.4970    1.0000 </r>
       <r>   -7.4857    1.0000 </r>
       <r>   -7.4620    1.0000 </r>
       <r>   -7.4595    1.0000 </r>
       <r>   -7.3904    1.0000 </r>
       <r>   -7.1317    1.0000 </r>
       <r>   -7.1310    1.0000 </r>
       <r>   -6.9954    1.0000 </r>
       <r>   -6.9897    1.0000 </r>
       <r>   -6.9866    1.0000 </r>
       <r>   -6.8947    1.0000 </r>
       <r>   -6.8917    1.0000 </r>
       <r>   -6.7175    1.0000 </r>
       <r>   -6.6992    1.0000 </r>
       <r>   -6.6972    1.0000 </r>
       <r>   -6.4304    1.0000 </r>
       <r>   -6.2394    1.0000 </r>
       <r>   -6.2342    1.0000 </r>
       <r>   -6.0468    1.0000 </r>
       <r>   -5.9738    1.0000 </r>
       <r>   -5.9688    1.0000 </r>
       <r>   -5.8857    1.0000 </r>
       <r>   -5.7687    1.0000 </r>
       <r>   -5.7656    1.0000 </r>
       <r>   -3.7445    0.0000 </r>
       <r>   -3.7380    0.0000 </r>
       <r>   -3.7331    0.0000 </r>
       <r>   -3.1612    0.0000 </r>
       <r>   -3.1602    0.0000 </r>
       <r>   -2.8140    0.0000 </r>
       <r>   -2.8040    0.0000 </r>
       <r>   -2.7537    0.0000 </r>
       <r>   -2.1711    0.0000 </r>
       <r>   -2.1654    0.0000 </r>
       <r>   -1.9659    0.0000 </r>
       <r>   -1.5786    0.0000 </r>
       <r>   -1.5269    0.0000 </r>
       <r>   -1.5191    0.0000 </r>
       <r>   -0.8870    0.0000 </r>
       <r>   -0.7424    0.0000 </r>
       <r>   -0.4528    0.0000 </r>
       <r>   -0.4482    0.0000 </r>
       <r>   -0.2133    0.0000 </r>
       <r>    0.1185    0.0000 </r>
       <r>    0.1228    0.0000 </r>
       <r>    0.2683    0.0000 </r>
       <r>    0.2777    0.0000 </r>
       <r>    0.2820    0.0000 </r>
       <r>    0.3251    0.0000 </r>
       <r>    0.4790    0.0000 </r>
       <r>    0.5355    0.0000 </r>
       <r>    0.5412    0.0000 </r>
       <r>    0.6244    0.0000 </r>
       <r>    0.6937    0.0000 </r>
       <r>    0.6941    0.0000 </r>
       <r>    0.7383    0.0000 </r>
       <r>    0.7407    0.0000 </r>
       <r>    0.7872    0.0000 </r>
       <r>    0.8742    0.0000 </r>
       <r>    0.8768    0.0000 </r>
       <r>    0.9150    0.0000 </r>
       <r>    0.9512    0.0000 </r>
       <r>    0.9724    0.0000 </r>
       <r>    0.9806    0.0000 </r>
       <r>    1.0924    0.0000 </r>
       <r>    1.1243    0.0000 </r>
       <r>    1.1275    0.0000 </r>
       <r>    1.1652    0.0000 </r>
       <r>    1.1691    0.0000 </r>
       <r>    1.1980    0.0000 </r>
       <r>    1.2240    0.0000 </r>
       <r>    1.2994    0.0000 </r>
       <r>    1.3356    0.0000 </r>
       <r>    1.3401    0.0000 </r>
       <r>    1.3613    0.0000 </r>
      </set>
      <set comment="kpoint 3">
       <r>  -30.8367    1.0000 </r>
       <r>  -30.8361    1.0000 </r>
       <r>  -30.8344    1.0000 </r>
       <r>  -26.5614    1.0000 </r>
       <r>  -26.5479    1.0000 </r>
       <r>  -26.5466    1.0000 </r>
       <r>  -26.5067    1.0000 </r>
       <r>  -26.5018    1.0000 </r>
       <r>  -26.4987    1.0000 </r>
       <r>  -26.3793    1.0000 </r>
       <r>  -26.3709    1.0000 </r>
       <r>  -26.3653    1.0000 </r>
       <r>  -25.5942    1.0000 </r>
       <r>  -25.5912    1.0000 </r>
       <r>  -25.5903    1.0000 </r>
       <r>  -24.3760    1.0000 </r>
       <r>  -24.3708    1.0000 </r>
       <r>  -24.3671    1.0000 </r>
       <r>  -23.5705    1.0000 </r>
       <r>  -23.5631    1.0000 </r>
       <r>  -23.5605    1.0000 </r>
       <r>  -23.0900    1.0000 </r>
       <r>  -23.0797    1.0000 </r>
       <r>  -23.0760    1.0000 </r>
       <r>  -22.2998    1.0000 </r>
       <r>  -22.0438    1.0000 </r>
       <r>  -20.4780    1.0000 </r>
       <r>  -20.4752    1.0000 </r>
       <r>  -20.2435    1.0000 </r>
       <r>  -19.7773    1.0000 </r>
       <r>  -19.7738    1.0000 </r>
       <r>  -19.4732    1.0000 </r>
       <r>  -19.4714    1.0000 </r>
       <r>  -18.4625    1.0000 </r>
       <r>  -18.3848    1.0000 </r>
       <r>  -18.3827    1.0000 </r>
       <r>  -17.8437    1.0000 </r>
       <r>  -17.6849    1.0000 </r>
       <r>  -17.6791    1.0000 </r>
       <r>  -16.6928    1.0000 </r>
       <r>  -16.6912    1.0000 </r>
       <r>  -16.5082    1.0000 </r>
       <r>  -16.1103    1.0000 </r>
       <r>  -16.1077    1.0000 </r>
       <r>  -15.9352    1.0000 </r>
       <r>  -15.9280    1.0000 </r>
       <r>  -15.8786    1.0000 </r>
       <r>  -15.3772    1.0000 </r>
       <r>  -15.3551    1.0000 </r>
       <r>  -15.3263    1.0000 </r>
       <r>  -15.0510    1.0000 </r>
       <r>  -14.5606    1.0000 </r>
       <r>  -14.5598    1.0000 </r>
       <r>  -14.2577    1.0000 </r>
       <r>  -14.2507    1.0000 </r>
       <r>  -14.1848    1.0000 </r>
       <r>  -13.8701    1.0000 </r>
       <r>  -13.8683    1.0000 </r>
       <r>  -13.8539    1.0000 </r>
       <r>  -13.5906    1.0000 </r>
       <r>  -13.3050    1.0000 </r>
       <r>  -13.2779    1.0000 </r>
       <r>  -13.2762    1.0000 </r>
       <r>  -13.2329    1.0000 </r>
       <r>  -13.2287    1.0000 </r>
       <r>  -13.1886    1.0000 </r>
       <r>  -12.9952    1.0000 </r>
       <r>  -12.9881    1.0000 </r>
       <r>  -12.9801    1.0000 </r>
       <r>  -12.5064    1.0000 </r>
       <r>  -12.3430    1.0000 </r>
       <r>  -12.2175    1.0000 </r>
       <r>  -12.2105    1.0000 </r>
       <r>  -12.0771    1.0000 </r>
       <r>  -11.8487    1.0000 </r>
       <r>  -11.8480    1.0000 </r>
       <r>  -11.8128    1.0000 </r>
       <r>  -11.8083    1.0000 </r>
       <r>  -11.7991    1.0000 </r>
       <r>  -11.6941    1.0000 </r>
       <r>  -11.4320    1.0000 </r>
       <r>  -11.3911    1.0000 </r>
       <r>  -11.3785    1.0000 </r>
       <r>  -11.2198    1.0000 </r>
       <r>  -11.2128    1.0000 </r>
       <r>  -11.2101    1.0000 </r>
       <r>  -11.0845    1.0000 </r>
       <r>  -10.8984    1.0000 </r>
       <r>  -10.8868    1.0000 </r>
       <r>  -10.7546    1.0000 </r>
       <r>  -10.5609    1.0000 </r>
       <r>  -10.5553    1.0000 </r>
       <r>  -10.4092    1.0000 </r>
       <r>  -10.4048    1.0000 </r>
       <r>  -10.3188    1.0000 </r>
       <r>  -10.1815    1.0000 </r>
       <r>  -10.1774    1.0000 </r>
       <r>  -10.1753    1.0000 </r>
       <r>   -9.7460    1.0000 </r>
       <r>   -9.3928    1.0000 </r>
       <r>   -9.3908    1.0000 </r>
       <r>   -9.2137    1.0000 </r>
       <r>   -9.1740    1.0000 </r>
       <r>   -9.1598    1.0000 </r>
       <r>   -9.0805    1.0000 </r>
       <r>   -9.0758    1.0000 </r>
       <r>   -8.8109    1.0000 </r>
       <r>   -8.4122    1.0000 </r>
       <r>   -8.4049    1.0000 </r>
       <r>   -8.3168    1.0000 </r>
       <r>   -7.8075    1.0000 </r>
       <r>   -7.8060    1.0000 </r>
       <r>   -7.8026    1.0000 </r>
       <r>   -7.7717    1.0000 </r>
       <r>   -7.7672    1.0000 </r>
       <r>   -7.7624    1.0000 </r>
       <r>   -7.5005    1.0000 </r>
       <r>   -7.4969    1.0000 </r>
       <r>   -7.4857    1.0000 </r>
       <r>   -7.4620    1.0000 </r>
       <r>   -7.4593    1.0000 </r>
       <r>   -7.3908    1.0000 </r>
       <r>   -7.1316    1.0000 </r>
       <r>   -7.1309    1.0000 </r>
       <r>   -6.9956    1.0000 </r>
       <r>   -6.9895    1.0000 </r>
       <r>   -6.9866    1.0000 </r>
       <r>   -6.8947    1.0000 </r>
       <r>   -6.8917    1.0000 </r>
       <r>   -6.7175    1.0000 </r>
       <r>   -6.6992    1.0000 </r>
       <r>   -6.6973    1.0000 </r>
       <r>   -6.4300    1.0000 </r>
       <r>   -6.2399    1.0000 </r>
       <r>   -6.2344    1.0000 </r>
       <r>   -6.0463    1.0000 </r>
       <r>   -5.9740    1.0000 </r>
       <r>   -5.9689    1.0000 </r>
       <r>   -5.8852    1.0000 </r>
       <r>   -5.7688    1.0000 </r>
       <r>   -5.7658    1.0000 </r>
       <r>   -3.7445    0.0000 </r>
       <r>   -3.7380    0.0000 </r>
       <r>   -3.7331    0.0000 </r>
       <r>   -3.1607    0.0000 </r>
       <r>   -3.1600    0.0000 </r>
       <r>   -2.8246    0.0000 </r>
       <r>   -2.8044    0.0000 </r>
       <r>   -2.7421    0.0000 </r>
       <r>   -2.1720    0.0000 </r>
       <r>   -2.1658    0.0000 </r>
       <r>   -1.9659    0.0000 </r>
       <r>   -1.5932    0.0000 </r>
       <r>   -1.5259    0.0000 </r>
       <r>   -1.5040    0.0000 </r>
       <r>   -0.8887    0.0000 </r>
       <r>   -0.7430    0.0000 </r>
       <r>   -0.4529    0.0000 </r>
       <r>   -0.4483    0.0000 </r>
       <r>   -0.2128    0.0000 </r>
       <r>    0.1186    0.0000 </r>
       <r>    0.1227    0.0000 </r>
       <r>    0.2672    0.0000 </r>
       <r>    0.2785    0.0000 </r>
       <r>    0.2840    0.0000 </r>
       <r>    0.3257    0.0000 </r>
       <r>    0.4771    0.0000 </r>
       <r>    0.5363    0.0000 </r>
       <r>    0.5420    0.0000 </r>
       <r>    0.6243    0.0000 </r>
       <r>    0.6926    0.0000 </r>
       <r>    0.6938    0.0000 </r>
       <r>    0.7371    0.0000 </r>
       <r>    0.7399    0.0000 </r>
       <r>    0.7864    0.0000 </r>
       <r>    0.8741    0.0000 </r>
       <r>    0.8770    0.0000 </r>
       <r>    0.9158    0.0000 </r>
       <r>    0.9455    0.0000 </r>
       <r>    0.9721    0.0000 </r>
       <r>    0.9862    0.0000 </r>
       <r>    1.0934    0.0000 </r>
       <r>    1.1233    0.0000 </r>
       <r>    1.1284    0.0000 </r>
       <r>    1.1599    0.0000 </r>
       <r>    1.1721    0.0000 </r>
       <r>    1.2060    0.0000 </r>
       <r>    1.2278    0.0000 </r>
       <r>    1.2937    0.0000 </r>
       <r>    1.3352    0.0000 </r>
       <r>    1.3393    0.0000 </r>
       <r>    1.3633    0.0000 </r>
      </set>
      <set comment="kpoint 4">
       <r>  -30.8367    1.0000 </r>
       <r>  -30.8361    1.0000 </r>
       <r>  -30.8344    1.0000 </r>
       <r>  -26.5614    1.0000 </r>
       <r>  -26.5479    1.0000 </r>
       <r>  -26.5467    1.0000 </r>
       <r>  -26.5067    1.0000 </r>
       <r>  -26.5018    1.0000 </r>
       <r>  -26.4987    1.0000 </r>
       <r>  -26.3793    1.0000 </r>
       <r>  -26.3709    1.0000 </r>
       <r>  -26.3653    1.0000 </r>
       <r>  -25.5942    1.0000 </r>
       <r>  -25.5912    1.0000 </r>
       <r>  -25.5903    1.0000 </r>
       <r>  -24.3760    1.0000 </r>
       <r>  -24.3708    1.0000 </r>
       <r>  -24.3672    1.0000 </r>
       <r>  -23.5705    1.0000 </r>
       <r>  -23.5631    1.0000 </r>
       <r>  -23.5605    1.0000 </r>
       <r>  -23.0900    1.0000 </r>
       <r>  -23.0797    1.0000 </r>
       <r>  -23.0760    1.0000 </r>
       <r>  -22.2998    1.0000 </r>
       <r>  -22.0438    1.0000 </r>
       <r>  -20.4779    1.0000 </r>
       <r>  -20.4740    1.0000 </r>
       <r>  -20.2460    1.0000 </r>
       <r>  -19.7773    1.0000 </r>
       <r>  -19.7713    1.0000 </r>
       <r>  -19.4744    1.0000 </r>
       <r>  -19.4716    1.0000 </r>
       <r>  -18.4621    1.0000 </r>
       <r>  -18.3851    1.0000 </r>
       <r>  -18.3832    1.0000 </r>
       <r>  -17.8423    1.0000 </r>
       <r>  -17.6852    1.0000 </r>
       <r>  -17.6797    1.0000 </r>
       <r>  -16.6925    1.0000 </r>
       <r>  -16.6908    1.0000 </r>
       <r>  -16.5095    1.0000 </r>
       <r>  -16.1102    1.0000 </r>
       <r>  -16.1074    1.0000 </r>
       <r>  -15.9417    1.0000 </r>
       <r>  -15.9283    1.0000 </r>
       <r>  -15.8700    1.0000 </r>
       <r>  -15.3902    1.0000 </r>
       <r>  -15.3549    1.0000 </r>
       <r>  -15.3144    1.0000 </r>
       <r>  -15.0514    1.0000 </r>
       <r>  -14.5609    1.0000 </r>
       <r>  -14.5590    1.0000 </r>
       <r>  -14.2678    1.0000 </r>
       <r>  -14.2507    1.0000 </r>
       <r>  -14.1748    1.0000 </r>
       <r>  -13.8708    1.0000 </r>
       <r>  -13.8683    1.0000 </r>
       <r>  -13.8540    1.0000 </r>
       <r>  -13.5906    1.0000 </r>
       <r>  -13.3053    1.0000 </r>
       <r>  -13.2779    1.0000 </r>
       <r>  -13.2761    1.0000 </r>
       <r>  -13.2329    1.0000 </r>
       <r>  -13.2290    1.0000 </r>
       <r>  -13.1872    1.0000 </r>
       <r>  -12.9961    1.0000 </r>
       <r>  -12.9879    1.0000 </r>
       <r>  -12.9801    1.0000 </r>
       <r>  -12.5064    1.0000 </r>
       <r>  -12.3431    1.0000 </r>
       <r>  -12.2173    1.0000 </r>
       <r>  -12.2104    1.0000 </r>
       <r>  -12.0773    1.0000 </r>
       <r>  -11.8490    1.0000 </r>
       <r>  -11.8481    1.0000 </r>
       <r>  -11.8136    1.0000 </r>
       <r>  -11.8083    1.0000 </r>
       <r>  -11.7974    1.0000 </r>
       <r>  -11.6945    1.0000 </r>
       <r>  -11.4320    1.0000 </r>
       <r>  -11.3913    1.0000 </r>
       <r>  -11.3789    1.0000 </r>
       <r>  -11.2196    1.0000 </r>
       <r>  -11.2129    1.0000 </r>
       <r>  -11.2087    1.0000 </r>
       <r>  -11.0856    1.0000 </r>
       <r>  -10.8988    1.0000 </r>
       <r>  -10.8885    1.0000 </r>
       <r>  -10.7511    1.0000 </r>
       <r>  -10.5612    1.0000 </r>
       <r>  -10.5554    1.0000 </r>
       <r>  -10.4098    1.0000 </r>
       <r>  -10.4051    1.0000 </r>
       <r>  -10.3189    1.0000 </r>
       <r>  -10.1816    1.0000 </r>
       <r>  -10.1783    1.0000 </r>
       <r>  -10.1756    1.0000 </r>
       <r>   -9.7426    1.0000 </r>
       <r>   -9.3939    1.0000 </r>
       <r>   -9.3907    1.0000 </r>
       <r>   -9.2250    1.0000 </r>
       <r>   -9.1740    1.0000 </r>
       <r>   -9.1508    1.0000 </r>
       <r>   -9.0803    1.0000 </r>
       <r>   -9.0740    1.0000 </r>
       <r>   -8.8115    1.0000 </r>
       <r>   -8.4121    1.0000 </r>
       <r>   -8.4044    1.0000 </r>
       <r>   -8.3177    1.0000 </r>
       <r>   -7.8075    1.0000 </r>
       <r>   -7.8061    1.0000 </r>
       <r>   -7.8022    1.0000 </r>
       <r>   -7.7717    1.0000 </r>
       <r>   -7.7672    1.0000 </r>
       <r>   -7.7625    1.0000 </r>
       <r>   -7.5005    1.0000 </r>
       <r>   -7.4967    1.0000 </r>
       <r>   -7.4858    1.0000 </r>
       <r>   -7.4620    1.0000 </r>
       <r>   -7.4589    1.0000 </r>
       <r>   -7.3914    1.0000 </r>
       <r>   -7.1315    1.0000 </r>
       <r>   -7.1308    1.0000 </r>
       <r>   -6.9960    1.0000 </r>
       <r>   -6.9892    1.0000 </r>
       <r>   -6.9866    1.0000 </r>
       <r>   -6.8948    1.0000 </r>
       <r>   -6.8917    1.0000 </r>
       <r>   -6.7175    1.0000 </r>
       <r>   -6.6992    1.0000 </r>
       <r>   -6.6973    1.0000 </r>
       <r>   -6.4294    1.0000 </r>
       <r>   -6.2409    1.0000 </r>
       <r>   -6.2347    1.0000 </r>
       <r>   -6.0454    1.0000 </r>
       <r>   -5.9743    1.0000 </r>
       <r>   -5.9690    1.0000 </r>
       <r>   -5.8845    1.0000 </r>
       <r>   -5.7691    1.0000 </r>
       <r>   -5.7660    1.0000 </r>
       <r>   -3.7445    0.0000 </r>
       <r>   -3.7380    0.0000 </r>
       <r>   -3.7331    0.0000 </r>
       <r>   -3.1605    0.0000 </r>
       <r>   -3.1590    0.0000 </r>
       <r>   -2.8378    0.0000 </r>
       <r>   -2.8045    0.0000 </r>
       <r>   -2.7278    0.0000 </r>
       <r>   -2.1738    0.0000 </r>
       <r>   -2.1662    0.0000 </r>
       <r>   -1.9658    0.0000 </r>
       <r>   -1.6093    0.0000 </r>
       <r>   -1.5257    0.0000 </r>
       <r>   -1.4853    0.0000 </r>
       <r>   -0.8915    0.0000 </r>
       <r>   -0.7439    0.0000 </r>
       <r>   -0.4529    0.0000 </r>
       <r>   -0.4485    0.0000 </r>
       <r>   -0.2122    0.0000 </r>
       <r>    0.1187    0.0000 </r>
       <r>    0.1225    0.0000 </r>
       <r>    0.2663    0.0000 </r>
       <r>    0.2790    0.0000 </r>
       <r>    0.2872    0.0000 </r>
       <r>    0.3267    0.0000 </r>
       <r>    0.4742    0.0000 </r>
       <r>    0.5369    0.0000 </r>
       <r>    0.5436    0.0000 </r>
       <r>    0.6242    0.0000 </r>
       <r>    0.6903    0.0000 </r>
       <r>    0.6937    0.0000 </r>
       <r>    0.7341    0.0000 </r>
       <r>    0.7397    0.0000 </r>
       <r>    0.7851    0.0000 </r>
       <r>    0.8738    0.0000 </r>
       <r>    0.8772    0.0000 </r>
       <r>    0.9165    0.0000 </r>
       <r>    0.9402    0.0000 </r>
       <r>    0.9713    0.0000 </r>
       <r>    0.9923    0.0000 </r>
       <r>    1.0952    0.0000 </r>
       <r>    1.1206    0.0000 </r>
       <r>    1.1303    0.0000 </r>
       <r>    1.1558    0.0000 </r>
       <r>    1.1767    0.0000 </r>
       <r>    1.2151    0.0000 </r>
       <r>    1.2338    0.0000 </r>
       <r>    1.2857    0.0000 </r>
       <r>    1.3317    0.0000 </r>
       <r>    1.3403    0.0000 </r>
       <r>    1.3665    0.0000 </r>
      </set>
      <set comment="kpoint 5">
       <r>  -30.8367    1.0000 </r>
       <r>  -30.8361    1.0000 </r>
       <r>  -30.8344    1.0000 </r>
       <r>  -26.5614    1.0000 </r>
       <r>  -26.5480    1.0000 </r>
       <r>  -26.5467    1.0000 </r>
       <r>  -26.5067    1.0000 </r>
       <r>  -26.5018    1.0000 </r>
       <r>  -26.4987    1.0000 </r>
       <r>  -26.3793    1.0000 </r>
       <r>  -26.3709    1.0000 </r>
       <r>  -26.3653    1.0000 </r>
       <r>  -25.5942    1.0000 </r>
       <r>  -25.5912    1.0000 </r>
       <r>  -25.5903    1.0000 </r>
       <r>  -24.3760    1.0000 </r>
       <r>  -24.3707    1.0000 </r>
       <r>  -24.3672    1.0000 </r>
       <r>  -23.5705    1.0000 </r>
       <r>  -23.5631    1.0000 </r>
       <r>  -23.5605    1.0000 </r>
       <r>  -23.0899    1.0000 </r>
       <r>  -23.0797    1.0000 </r>
       <r>  -23.0761    1.0000 </r>
       <r>  -22.2998    1.0000 </r>
       <r>  -22.0438    1.0000 </r>
       <r>  -20.4778    1.0000 </r>
       <r>  -20.4724    1.0000 </r>
       <r>  -20.2494    1.0000 </r>
       <r>  -19.7773    1.0000 </r>
       <r>  -19.7678    1.0000 </r>
       <r>  -19.4761    1.0000 </r>
       <r>  -19.4717    1.0000 </r>
       <r>  -18.4616    1.0000 </r>
       <r>  -18.3859    1.0000 </r>
       <r>  -18.3836    1.0000 </r>
       <r>  -17.8404    1.0000 </r>
       <r>  -17.6856    1.0000 </r>
       <r>  -17.6805    1.0000 </r>
       <r>  -16.6923    1.0000 </r>
       <r>  -16.6901    1.0000 </r>
       <r>  -16.5111    1.0000 </r>
       <r>  -16.1100    1.0000 </r>
       <r>  -16.1071    1.0000 </r>
       <r>  -15.9485    1.0000 </r>
       <r>  -15.9287    1.0000 </r>
[...]
       <r>   -32.4529     0.0000     0.0000 </r>
       <r>   -32.3344     0.0000     0.0000 </r>
       <r>   -32.2158     0.0000     0.0000 </r>
       <r>   -32.0973     0.0000     0.0000 </r>
       <r>   -31.9788     0.0000     0.0000 </r>
       <r>   -31.8603     0.0000     0.0000 </r>
       <r>   -31.7418     0.0000     0.0000 </r>
       <r>   -31.6233     0.0000     0.0000 </r>
       <r>   -31.5047     0.0000     0.0000 </r>
       <r>   -31.3862     0.0000     0.0000 </r>
       <r>   -31.2677     0.0000     0.0000 </r>
       <r>   -31.1492     0.0000     0.0000 </r>
       <r>   -31.0307     0.0000     0.0000 </r>
       <r>   -30.9121     0.0000     0.0000 </r>
       <r>   -30.7936    50.6250     6.0000 </r>
       <r>   -30.6751     0.0000     6.0000 </r>
       <r>   -30.5566     0.0000     6.0000 </r>
       <r>   -30.4381     0.0000     6.0000 </r>
       <r>   -30.3195     0.0000     6.0000 </r>
       <r>   -30.2010     0.0000     6.0000 </r>
       <r>   -30.0825     0.0000     6.0000 </r>
       <r>   -29.9640     0.0000     6.0000 </r>
       <r>   -29.8455     0.0000     6.0000 </r>
       <r>   -29.7270     0.0000     6.0000 </r>
       <r>   -29.6084     0.0000     6.0000 </r>
       <r>   -29.4899     0.0000     6.0000 </r>
       <r>   -29.3714     0.0000     6.0000 </r>
       <r>   -29.2529     0.0000     6.0000 </r>
       <r>   -29.1344     0.0000     6.0000 </r>
       <r>   -29.0158     0.0000     6.0000 </r>
       <r>   -28.8973     0.0000     6.0000 </r>
       <r>   -28.7788     0.0000     6.0000 </r>
       <r>   -28.6603     0.0000     6.0000 </r>
       <r>   -28.5418     0.0000     6.0000 </r>
       <r>   -28.4233     0.0000     6.0000 </r>
       <r>   -28.3047     0.0000     6.0000 </r>
       <r>   -28.1862     0.0000     6.0000 </r>
       <r>   -28.0677     0.0000     6.0000 </r>
       <r>   -27.9492     0.0000     6.0000 </r>
       <r>   -27.8307     0.0000     6.0000 </r>
       <r>   -27.7121     0.0000     6.0000 </r>
       <r>   -27.5936     0.0000     6.0000 </r>
       <r>   -27.4751     0.0000     6.0000 </r>
       <r>   -27.3566     0.0000     6.0000 </r>
       <r>   -27.2381     0.0000     6.0000 </r>
       <r>   -27.1195     0.0000     6.0000 </r>
       <r>   -27.0010     0.0000     6.0000 </r>
       <r>   -26.8825     0.0000     6.0000 </r>
       <r>   -26.7640     0.0000     6.0000 </r>
       <r>   -26.6455     0.0000     6.0000 </r>
       <r>   -26.5270    50.5976    11.9968 </r>
       <r>   -26.4084     0.0003    18.0000 </r>
       <r>   -26.2899    16.8750    24.0000 </r>
       <r>   -26.1714     0.0000    24.0000 </r>
       <r>   -26.0529     0.0000    24.0000 </r>
       <r>   -25.9344     0.0000    24.0000 </r>
       <r>   -25.8158     0.0000    24.0000 </r>
       <r>   -25.6973     0.0000    24.0000 </r>
       <r>   -25.5788    48.8314    29.7874 </r>
       <r>   -25.4603     0.0000    30.0000 </r>
       <r>   -25.3418     0.0000    30.0000 </r>
       <r>   -25.2233     0.0000    30.0000 </r>
       <r>   -25.1047     0.0000    30.0000 </r>
       <r>   -24.9862     0.0000    30.0000 </r>
       <r>   -24.8677     0.0000    30.0000 </r>
       <r>   -24.7492     0.0000    30.0000 </r>
       <r>   -24.6307     0.0000    30.0000 </r>
       <r>   -24.5121     0.0000    30.0000 </r>
       <r>   -24.3936     0.1102    30.0131 </r>
       <r>   -24.2751     0.0000    36.0000 </r>
       <r>   -24.1566     0.0000    36.0000 </r>
       <r>   -24.0381     0.0000    36.0000 </r>
       <r>   -23.9195     0.0000    36.0000 </r>
       <r>   -23.8010     0.0000    36.0000 </r>
       <r>   -23.6825     0.0000    36.0000 </r>
       <r>   -23.5640    26.7457    39.1699 </r>
       <r>   -23.4455     0.0000    42.0000 </r>
       <r>   -23.3270     0.0000    42.0000 </r>
       <r>   -23.2084     0.0000    42.0000 </r>
       <r>   -23.0899     9.5662    43.1338 </r>
       <r>   -22.9714     0.0000    48.0000 </r>
       <r>   -22.8529     0.0000    48.0000 </r>
       <r>   -22.7344     0.0000    48.0000 </r>
       <r>   -22.6158     0.0000    48.0000 </r>
       <r>   -22.4973     0.0000    48.0000 </r>
       <r>   -22.3788     0.0000    48.0000 </r>
       <r>   -22.2603    16.8750    50.0000 </r>
       <r>   -22.1418     0.0000    50.0000 </r>
       <r>   -22.0233    16.8521    51.9973 </r>
       <r>   -21.9047     0.0000    52.0000 </r>
       <r>   -21.7862     0.0000    52.0000 </r>
       <r>   -21.6677     0.0000    52.0000 </r>
       <r>   -21.5492     0.0000    52.0000 </r>
       <r>   -21.4307     0.0000    52.0000 </r>
       <r>   -21.3121     0.0000    52.0000 </r>
       <r>   -21.1936     0.0000    52.0000 </r>
       <r>   -21.0751     0.0000    52.0000 </r>
       <r>   -20.9566     0.0000    52.0000 </r>
       <r>   -20.8381     0.0000    52.0000 </r>
       <r>   -20.7195     0.0000    52.0000 </r>
       <r>   -20.6010     0.0000    52.0000 </r>
       <r>   -20.4825     4.3872    52.5200 </r>
       <r>   -20.3640    10.1498    56.0029 </r>
       <r>   -20.2455     7.1630    57.8156 </r>
       <r>   -20.1270     0.0000    58.0000 </r>
       <r>   -20.0084     0.0000    58.0000 </r>
       <r>   -19.8899     0.0000    58.0000 </r>
       <r>   -19.7714    14.9140    59.7676 </r>
       <r>   -19.6529    11.2498    62.0000 </r>
       <r>   -19.5344     1.8462    62.2188 </r>
       <r>   -19.4158    22.2187    66.0000 </r>
       <r>   -19.2973     0.0000    66.0000 </r>
       <r>   -19.1788     0.0000    66.0000 </r>
       <r>   -19.0603     0.0000    66.0000 </r>
       <r>   -18.9418     0.0000    66.0000 </r>
       <r>   -18.8233     0.0000    66.0000 </r>
       <r>   -18.7047     0.0000    66.0000 </r>
       <r>   -18.5862     0.0000    66.0000 </r>
       <r>   -18.4677     0.9227    66.1094 </r>
       <r>   -18.3492    33.7500    72.0000 </r>
       <r>   -18.2307     0.0000    72.0000 </r>
       <r>   -18.1121     0.0000    72.0000 </r>
       <r>   -17.9936     0.0000    72.0000 </r>
       <r>   -17.8751     0.0000    72.0000 </r>
       <r>   -17.7566    13.7806    73.9999 </r>
       <r>   -17.6381    28.4062    78.0000 </r>
       <r>   -17.5195     0.0000    78.0000 </r>
       <r>   -17.4010     0.0000    78.0000 </r>
       <r>   -17.2825     0.0000    78.0000 </r>
       <r>   -17.1640     0.0000    78.0000 </r>
       <r>   -17.0455     0.0000    78.0000 </r>
       <r>   -16.9270     0.0000    78.0000 </r>
       <r>   -16.8084     0.0000    78.0000 </r>
       <r>   -16.6899    13.1598    79.5597 </r>
       <r>   -16.5714     0.0351    82.0042 </r>
       <r>   -16.4529     6.1875    84.0000 </r>
       <r>   -16.3344     0.0000    84.0000 </r>
       <r>   -16.2158     0.0000    84.0000 </r>
       <r>   -16.0973    27.7483    87.2887 </r>
       <r>   -15.9788    11.9463    89.4159 </r>
       <r>   -15.8603    18.6699    92.2794 </r>
       <r>   -15.7418     3.4798    92.9124 </r>
       <r>   -15.6233     4.7975    94.0019 </r>
       <r>   -15.5047     6.8295    95.2428 </r>
       <r>   -15.3862     3.0931    95.7999 </r>
       <r>   -15.2677     7.1676    98.4828 </r>
       <r>   -15.1492    10.6875   100.0000 </r>
       <r>   -15.0307    16.8688   101.9993 </r>
       <r>   -14.9121     0.0000   102.0000 </r>
       <r>   -14.7936     0.0000   102.0000 </r>
       <r>   -14.6751     0.0000   102.0000 </r>
       <r>   -14.5566    17.6594   104.0930 </r>
       <r>   -14.4381     7.5786   106.1649 </r>
       <r>   -14.3195     4.0401   107.5122 </r>
       <r>   -14.2010    19.5962   110.0225 </r>
       <r>   -14.0825     4.0158   110.7759 </r>
       <r>   -13.9640     3.6562   112.0000 </r>
       <r>   -13.8455    49.5147   117.8684 </r>
       <r>   -13.7270     0.0000   118.0000 </r>
       <r>   -13.6084     0.1292   118.0153 </r>
       <r>   -13.4899     0.0000   120.0000 </r>
       <r>   -13.3714     0.0000   120.0000 </r>
       <r>   -13.2529    50.7146   126.0106 </r>
       <r>   -13.1344    16.6976   131.9790 </r>
       <r>   -13.0158     8.6225   133.0219 </r>
       <r>   -12.8973     0.0000   138.0000 </r>
       <r>   -12.7788     0.0000   138.0000 </r>
       <r>   -12.6603     0.0000   138.0000 </r>
       <r>   -12.5418     0.0000   138.0000 </r>
       <r>   -12.4233     0.0000   140.0000 </r>
       <r>   -12.3047    16.8750   142.0000 </r>
       <r>   -12.1862    33.6052   145.9828 </r>
       <r>   -12.0677    16.2378   147.9245 </r>
       <r>   -11.9492     0.0000   148.0000 </r>
       <r>   -11.8307    37.0470   152.3908 </r>
       <r>   -11.7121    17.0249   158.3844 </r>
       <r>   -11.5936     0.0000   160.0000 </r>
       <r>   -11.4751     0.0000   160.0000 </r>
       <r>   -11.3566    50.6212   165.9996 </r>
       <r>   -11.2381     0.0199   166.0024 </r>
       <r>   -11.1195    31.1838   173.0625 </r>
       <r>   -11.0010     0.0000   174.0000 </r>
       <r>   -10.8825    31.8231   177.7716 </r>
       <r>   -10.7640     0.2549   178.0302 </r>
       <r>   -10.6455     7.1243   179.3444 </r>
       <r>   -10.5270    32.6248   184.0000 </r>
       <r>   -10.4084    21.4688   186.5445 </r>
       <r>   -10.2899    16.8749   190.0000 </r>
       <r>   -10.1714    44.2906   195.2493 </r>
       <r>   -10.0529     0.0000   196.0000 </r>
       <r>    -9.9344     0.0000   196.0000 </r>
       <r>    -9.8158     0.0000   196.0000 </r>
       <r>    -9.6973     5.0781   196.6018 </r>
       <r>    -9.5788     8.1015   197.7602 </r>
       <r>    -9.4603     8.9343   199.0589 </r>
       <r>    -9.3418    23.0007   202.0593 </r>
       <r>    -9.2233     4.1411   203.7908 </r>
       <r>    -9.1047    30.5441   207.6200 </r>
       <r>    -8.9862    10.9509   211.6646 </r>
       <r>    -8.8677     0.0000   212.0000 </r>
       <r>    -8.7492     7.5937   214.0000 </r>
       <r>    -8.6307     0.0000   214.0000 </r>
       <r>    -8.5121     0.0000   214.0000 </r>
       <r>    -8.3936    22.7784   216.6997 </r>
       <r>    -8.2751    12.3750   220.0000 </r>
       <r>    -8.1566     0.0000   220.0000 </r>
       <r>    -8.0381     0.0000   220.0000 </r>
       <r>    -7.9195     0.0000   220.0000 </r>
       <r>    -7.8010    30.5219   223.6174 </r>
       <r>    -7.6825     1.9687   232.0000 </r>
       <r>    -7.5640     0.0000   232.0000 </r>
       <r>    -7.4455    76.6658   241.0863 </r>
       <r>    -7.3270     7.0312   244.0000 </r>
       <r>    -7.2084     0.0000   244.0000 </r>
       <r>    -7.0899    33.7500   248.0000 </r>
       <r>    -6.9714    49.7302   253.8940 </r>
       <r>    -6.8529    33.7500   258.0000 </r>
       <r>    -6.7344     0.1352   258.0160 </r>
       <r>    -6.6158     0.0000   264.0000 </r>
       <r>    -6.4973     0.0000   264.0000 </r>
       <r>    -6.3788    16.8747   266.0000 </r>
       <r>    -6.2603    10.7613   267.2754 </r>
       <r>    -6.1418     0.0000   270.0000 </r>
       <r>    -6.0232     9.3168   271.1042 </r>
       <r>    -5.9047    25.0392   276.0009 </r>
       <r>    -5.7862    13.9990   278.5591 </r>
       <r>    -5.6677     0.0000   282.0000 </r>
       <r>    -5.5492     0.0000   282.0000 </r>
       <r>    -5.4307     0.0000   282.0000 </r>
       <r>    -5.3121     0.0000   282.0000 </r>
       <r>    -5.1936     0.0000   282.0000 </r>
       <r>    -5.0751     0.0000   282.0000 </r>
       <r>    -4.9566     0.0000   282.0000 </r>
       <r>    -4.8381     0.0000   282.0000 </r>
       <r>    -4.7195     0.0000   282.0000 </r>
       <r>    -4.6010     0.0000   282.0000 </r>
       <r>    -4.4825     0.0000   282.0000 </r>
       <r>    -4.3640     0.0000   282.0000 </r>
       <r>    -4.2455     0.0000   282.0000 </r>
       <r>    -4.1270     0.0000   282.0000 </r>
       <r>    -4.0084     0.0000   282.0000 </r>
       <r>    -3.8899     0.0000   282.0000 </r>
       <r>    -3.7714     0.0012   282.0001 </r>
       <r>    -3.6529     0.0000   288.0000 </r>
       <r>    -3.5344     0.0000   288.0000 </r>
       <r>    -3.4158     0.0000   288.0000 </r>
       <r>    -3.2973     0.0000   288.0000 </r>
       <r>    -3.1788     0.0879   288.0104 </r>
       <r>    -3.0603    11.5312   292.0000 </r>
       <r>    -2.9418     9.5311   293.2963 </r>
       <r>    -2.8232     3.0838   293.8655 </r>
       <r>    -2.7047     2.6092   296.3092 </r>
       <r>    -2.5862     2.9426   296.7821 </r>
       <r>    -2.4677     8.7187   298.0000 </r>
       <r>    -2.3492     0.0000   298.0000 </r>
       <r>    -2.2307     9.7750   299.1585 </r>
       <r>    -2.1121    21.0937   302.0000 </r>
       <r>    -1.9936     0.0005   302.0001 </r>
       <r>    -1.8751     0.0000   304.0000 </r>
       <r>    -1.7566     4.5116   304.5347 </r>
       <r>    -1.6381     3.3635   305.6653 </r>
       <r>    -1.5195    16.5568   307.7623 </r>
       <r>    -1.4010     1.9994   308.4703 </r>
       <r>    -1.2825     2.1457   308.8210 </r>
       <r>    -1.1640     5.8646   309.6617 </r>
       <r>    -1.0455     5.4315   310.5437 </r>
       <r>    -0.9270     3.4742   311.4451 </r>
       <r>    -0.8084     1.1250   312.0000 </r>
       <r>    -0.6899    16.8750   314.0000 </r>
       <r>    -0.5714     0.0000   314.0000 </r>
       <r>    -0.4529    17.6895   316.0965 </r>
       <r>    -0.3344     0.0000   318.0000 </r>
       <r>    -0.2158     1.2227   318.1449 </r>
       <r>    -0.0973     0.0000   320.0000 </r>
       <r>     0.0212     0.0000   320.0000 </r>
       <r>     0.1397    33.5243   323.9733 </r>
       <r>     0.2582     0.4740   324.0562 </r>
       <r>     0.3768    36.8388   331.6661 </r>
       <r>     0.4953    16.8580   333.9980 </r>
       <r>     0.6138    37.4509   339.2720 </r>
       <r>     0.7323    50.2316   347.1867 </r>
       <r>     0.8508    22.9908   350.7248 </r>
       <r>     0.9693    37.4100   358.1005 </r>
       <r>     1.0879    29.5284   363.8663 </r>
       <r>     1.2064    38.3068   371.0401 </r>
       <r>     1.3249    41.3790   377.8708 </r>
       <r>     1.4434    30.0743   383.2644 </r>
       <r>     1.5619     0.2812   384.0000 </r>
       <r>     1.6805     0.0000   384.0000 </r>
       <r>     1.7990     0.0000   384.0000 </r>
       <r>     1.9175     0.0000   384.0000 </r>
       <r>     2.0360     0.0000   384.0000 </r>
       <r>     2.1545     0.0000   384.0000 </r>
       <r>     2.2730     0.0000   384.0000 </r>
       <r>     2.3916     0.0000   384.0000 </r>
       <r>     2.5101     0.0000   384.0000 </r>
       <r>     2.6286     0.0000   384.0000 </r>
       <r>     2.7471     0.0000   384.0000 </r>
       <r>     2.8656     0.0000   384.0000 </r>
       <r>     2.9842     0.0000   384.0000 </r>
       <r>     3.1027     0.0000   384.0000 </r>
      </set>
     </set>
    </array>
   </total>
  </dos>
 </calculation>
 <structure name="finalpos" >
  <crystal>
   <varray name="basis" >
    <v>      21.90817103      -0.03084870       0.00000000 </v>
    <v>     -10.98078574      19.07667758       0.00000000 </v>
    <v>       0.00000000       0.00000000      20.00000000 </v>
   </varray>
   <i name="volume">   8351.92744258 </i>
   <varray name="rec_basis" >
    <v>       0.04568210       0.02629521       0.00000000 </v>
    <v>       0.00007387       0.05246255       0.00000000 </v>
    <v>       0.00000000       0.00000000       0.05000000 </v>
   </varray>
  </crystal>
  <varray name="positions" >
   <v>       0.51021310       0.94859275       0.52564831 </v>
   <v>       0.60993566       0.03030292       0.58685261 </v>
   <v>       0.56819877       0.13506837       0.54743866 </v>
   <v>       0.42947429       0.48363655       0.52505982 </v>
   <v>       0.41024062       0.38489564       0.58820019 </v>
   <v>       0.55660603       0.42343017       0.54943564 </v>
   <v>       0.04573600       0.56294526       0.52510174 </v>
   <v>       0.96535989       0.58050920       0.58923948 </v>
   <v>       0.85811247       0.43541901       0.54805627 </v>
   <v>       0.47128964       0.04653205       0.48969023 </v>
   <v>       0.41233218       0.86043519       0.46763191 </v>
   <v>       0.56610626       0.51941288       0.48967360 </v>
   <v>       0.44079380       0.58135682       0.46609070 </v>
   <v>       0.94527620       0.42794390       0.48663936 </v>
   <v>       0.13286841       0.55343956       0.46493345 </v>
   <v>       0.35191962       0.61622674       0.44980325 </v>
   <v>       0.27977297       0.59396171       0.44913910 </v>
   <v>       0.25653851       0.64255819       0.44966758 </v>
   <v>       0.30628900       0.71436226       0.45011106 </v>
   <v>       0.40076532       0.68798726       0.45036091 </v>
   <v>       0.37010401       0.55885682       0.45460482 </v>
   <v>       0.18066242       0.62411460       0.45464271 </v>
   <v>       0.64243454       0.38365311       0.55409031 </v>
   <v>       0.71359621       0.40171583       0.55385870 </v>
   <v>       0.73233653       0.34970902       0.55283117 </v>
   <v>       0.67929315       0.27886174       0.55235981 </v>
   <v>       0.59014257       0.31298953       0.55352205 </v>
   <v>       0.62818997       0.44357603       0.54931460 </v>
   <v>       0.80681754       0.36414555       0.54658073 </v>
   <v>       0.52864078       0.06606741       0.52818327 </v>
   <v>       0.54728839       0.01458229       0.54490601 </v>
   <v>       0.52767311       0.46322095       0.52900137 </v>
   <v>       0.45763188       0.44608845       0.54528126 </v>
   <v>       0.92705342       0.46499184       0.52744146 </v>
   <v>       0.97974455       0.53433442       0.54516113 </v>
   <v>       0.37836499       0.73752286       0.45079367 </v>
   <v>       0.43566537       0.81304794       0.45656856 </v>
   <v>       0.60826665       0.26021384       0.55264087 </v>
   <v>       0.54797876       0.18615598       0.54657852 </v>
   <v>       0.43482999       0.98064179       0.46960821 </v>
   <v>       0.45389408       0.93025126       0.48775392 </v>
   <v>       0.53743221       0.55638236       0.46864345 </v>
   <v>       0.46818458       0.53904343       0.48666383 </v>
   <v>       0.01114877       0.45715570       0.46562815 </v>
   <v>       0.06284691       0.52549916       0.48532528 </v>
   <v>       0.49826654       0.83052184       0.45326564 </v>
   <v>       0.32481643       0.49668939       0.45031584 </v>
   <v>       0.16321817       0.66905442       0.45153165 </v>
   <v>       0.48687781       0.17288715       0.54061809 </v>
   <v>       0.67589576       0.50457798       0.54463011 </v>
   <v>       0.82042961       0.31687221       0.53979818 </v>
   <v>       0.65282895       0.09385803       0.59888763 </v>
   <v>       0.61619525       0.98122114       0.60734423 </v>
   <v>       0.42913933       0.34048823       0.59937576 </v>
   <v>       0.35637171       0.38137813       0.61030059 </v>
   <v>       0.90174892       0.56120048       0.60053414 </v>
   <v>       0.01545701       0.63391530       0.61198300 </v>
   <v>       0.28456322       0.74947038       0.45130795 </v>
   <v>       0.45774200       0.70950766       0.45187360 </v>
   <v>       0.24443623       0.53722051       0.44962658 </v>
   <v>       0.69687491       0.24047188       0.54940946 </v>
   <v>       0.53394766       0.29546238       0.55140382 </v>
   <v>       0.75215203       0.45766694       0.55208229 </v>
   <v>       0.61536862       0.14600293       0.56838487 </v>
   <v>       0.51993383       0.37638886       0.56976769 </v>
   <v>       0.84739204       0.47127279       0.56970362 </v>
   <v>       0.38926636       0.96674468       0.43739364 </v>
   <v>       0.36043471       0.84356485       0.46051833 </v>
   <v>       0.56953843       0.60090621       0.43571595 </v>
   <v>       0.47624681       0.63301679       0.45981398 </v>
   <v>       0.02393791       0.42626807       0.43141311 </v>
   <v>       0.14954663       0.51848042       0.45756148 </v>
  </varray>
 </structure>
</modeling>
