<?xml version="1.0" encoding="ISO-8859-1"?>
<modeling>
 <generator>
  <i name="program" type="string">vasp </i>
  <i name="version" type="string">5.4.4.18Apr17-6-g9f103f2a35  </i>
  <i name="subversion" type="string">(build Jun 07 2020 16:50:00) complex            parallel </i>
  <i name="platform" type="string">LinuxIFC </i>
  <i name="date" type="string">2023 02 16 </i>
  <i name="time" type="string">20:33:07 </i>
 </generator>
 <incar>
  <i type="string" name="SYSTEM">Simulation for cell shape cell volume r</i>
  <i type="int" name="ISTART">     1</i>
  <i type="string" name="PREC">high</i>
  <i type="string" name="ALGO">48</i>
  <i type="int" name="ICHARG">    11</i>
  <i type="int" name="NELM">   200</i>
  <i type="int" name="IBRION">    -1</i>
  <i name="EDIFF">      0.00001000</i>
  <i name="EDIFFG">     -0.01000000</i>
  <i type="int" name="NSW">     0</i>
  <i type="int" name="ISIF">     2</i>
  <i name="ENCUT">    500.00000000</i>
  <i name="POTIM">      0.30000000</i>
  <i type="string" name="LREAL">A</i>
  <i type="int" name="ISMEAR">     0</i>
  <i name="SIGMA">      0.01000000</i>
  <i type="int" name="NWRITE">     0</i>
  <i type="logical" name="LWAVE"> F  </i>
  <i type="logical" name="LCHARG"> F  </i>
  <v type="int" name="KPOINT_BSE">    -1     0     0     0</v>
  <i type="int" name="NELM">   200</i>
  <i type="string" name="GGA">PE</i>
 </incar>
 <structure name="primitive_cell" >
  <crystal>
   <varray name="basis" >
    <v>      31.99058879      -0.00204393       0.00000000 </v>
    <v>     -15.99697046      27.64347083       0.00000000 </v>
    <v>       0.00000000       0.00000000      20.00000000 </v>
   </varray>
   <i name="volume">  17685.96422731 </i>
   <varray name="rec_basis" >
    <v>       0.03126035       0.01809002       0.00000000 </v>
    <v>       0.00000231       0.03617625       0.00000000 </v>
    <v>       0.00000000       0.00000000       0.05000000 </v>
   </varray>
  </crystal>
  <varray name="positions" >
   <v>       0.45927688      -0.46738257      -0.47028363 </v>
   <v>       0.43509841      -0.44347882      -0.46942647 </v>
   <v>       0.47087408      -0.47829054       0.47009680 </v>
   <v>       0.42653794      -0.43531369      -0.41980868 </v>
   <v>       0.45800513      -0.46503770       0.40925089 </v>
   <v>       0.49783795       0.49519886       0.46975845 </v>
   <v>       0.42118486      -0.42765259       0.47313866 </v>
   <v>      -0.48713617       0.48736701      -0.47114893 </v>
   <v>       0.43354893      -0.43902613       0.41152230 </v>
   <v>      -0.49292142       0.47868109       0.40887786 </v>
   <v>       0.39494249      -0.40081740       0.47815253 </v>
   <v>       0.46869504      -0.47881972       0.34333102 </v>
   <v>       0.42349761      -0.42916276       0.36441422 </v>
   <v>       0.34534574      -0.44679752      -0.44516483 </v>
   <v>      -0.46309936       0.46332959      -0.47085121 </v>
   <v>       0.49270482       0.48920044       0.34326109 </v>
   <v>       0.35621540      -0.41522911      -0.47698362 </v>
   <v>      -0.45170883       0.45771335      -0.42163521 </v>
   <v>       0.45906732      -0.46651294       0.29011877 </v>
   <v>      -0.46854622       0.45256568       0.41071886 </v>
   <v>       0.40775061      -0.36023063       0.43744940 </v>
   <v>       0.43791587      -0.34815962       0.40267226 </v>
   <v>      -0.45266863       0.44432920       0.47176878 </v>
   <v>       0.49934513       0.47428376       0.29012557 </v>
   <v>       0.33078609      -0.39048572      -0.47355039 </v>
   <v>      -0.46136566       0.44012841       0.36356302 </v>
   <v>       0.38283610      -0.33501100       0.44106238 </v>
   <v>       0.30044141      -0.40236816      -0.43919892 </v>
   <v>      -0.42631233       0.41761960       0.47661987 </v>
   <v>       0.34377768      -0.35012020       0.48534034 </v>
   <v>      -0.37302221       0.46722396      -0.45301488 </v>
   <v>       0.39322512      -0.30359086       0.40922007 </v>
   <v>      -0.38552060       0.43405917      -0.48189435 </v>
   <v>      -0.47288241       0.36127533       0.40748483 </v>
   <v>      -0.44111106       0.37501499       0.43959543 </v>
   <v>       0.39665510      -0.26551526      -0.44327666 </v>
   <v>       0.26310582      -0.40495516       0.41525033 </v>
   <v>       0.31742000      -0.32536602       0.48799965 </v>
   <v>      -0.36014568       0.40930119      -0.47804955 </v>
   <v>       0.38400628      -0.24694440      -0.47619319 </v>
   <v>       0.24224924      -0.39295753       0.44441340 </v>
   <v>       0.26640715      -0.35177467       0.48528790 </v>
   <v>       0.34237779      -0.27422955       0.48489871 </v>
   <v>      -0.41622080       0.34978622       0.44357190 </v>
   <v>      -0.32828723       0.42279388      -0.44623592 </v>
   <v>      -0.37516998       0.36681869       0.48458703 </v>
   <v>      -0.42826671       0.31678282       0.41459915 </v>
   <v>       0.40902720      -0.19670842      -0.47993763 </v>
   <v>       0.19211657      -0.41801103       0.44076924 </v>
   <v>       0.44154232      -0.17614557      -0.44984093 </v>
   <v>       0.17398587      -0.44988087       0.40875128 </v>
   <v>       0.23908114      -0.33683947      -0.47704408 </v>
   <v>       0.32644423      -0.25001289       0.44237251 </v>
   <v>       0.25754698      -0.30492027      -0.44525896 </v>
   <v>       0.29413007      -0.27088562       0.41213342 </v>
   <v>      -0.42749727       0.28172383      -0.44227944 </v>
   <v>      -0.29435995       0.41806545       0.40907472 </v>
   <v>      -0.34895571       0.34204958       0.48781750 </v>
   <v>       0.16442974      -0.40323405       0.47795306 </v>
   <v>       0.39367879      -0.17214696       0.47710758 </v>
   <v>       0.18893461      -0.36234488      -0.48061716 </v>
   <v>       0.35192396      -0.19980782       0.43848286 </v>
   <v>      -0.41478904       0.26333199      -0.47543579 </v>
   <v>      -0.27356915       0.40743499       0.44089531 </v>
   <v>      -0.29783956       0.36831459       0.48513068 </v>
   <v>      -0.37356727       0.29088443       0.48505450 </v>
   <v>       0.16839562      -0.34985863      -0.45157004 </v>
   <v>       0.33910903      -0.18156489       0.40514965 </v>
   <v>       0.11135206      -0.42969781       0.47316132 </v>
   <v>       0.42067593      -0.11898943       0.47221568 </v>
   <v>       0.43226835      -0.10634577      -0.42092467 </v>
   <v>      -0.47154630       0.19229081      -0.44841162 </v>
   <v>      -0.43932764       0.21309070      -0.47896246 </v>
   <v>       0.10692502      -0.43950433       0.36512622 </v>
   <v>      -0.22342361       0.43208877       0.43730254 </v>
   <v>       0.09879964      -0.42772213      -0.42048564 </v>
   <v>      -0.20508511       0.46229055       0.40254010 </v>
   <v>       0.43880596      -0.08941730      -0.47034218 </v>
   <v>       0.41841454      -0.11467507       0.36373409 </v>
   <v>       0.08727883      -0.44622001       0.41217609 </v>
   <v>      -0.27078055       0.35495316      -0.47387299 </v>
   <v>       0.08184526      -0.43960152      -0.46965754 </v>
   <v>       0.43005566      -0.09494379       0.41092184 </v>
   <v>      -0.35745517       0.26695284       0.44230507 </v>
   <v>      -0.28949768       0.32451043      -0.43964346 </v>
   <v>      -0.32539093       0.28807148       0.41169893 </v>
   <v>      -0.19597267       0.41895054       0.47800956 </v>
   <v>      -0.42390298       0.18880070       0.47768193 </v>
   <v>      -0.22060998       0.38012885      -0.47725777 </v>
   <v>      -0.38248435       0.21672852       0.43858368 </v>
   <v>       0.46310752      -0.04125997      -0.47086000 </v>
   <v>       0.03376158      -0.46360883      -0.47007908 </v>
   <v>       0.03680316      -0.47066224       0.41021097 </v>
   <v>       0.45632824      -0.04438436       0.40894014 </v>
   <v>       0.47195483      -0.01846822       0.46984085 </v>
   <v>       0.01095666      -0.47920221       0.47087611 </v>
   <v>       0.03342997      -0.48164661       0.29199329 </v>
   <v>      -0.20015966       0.36897622      -0.44552958 </v>
   <v>      -0.14288151       0.44492069       0.47326861 </v>
   <v>      -0.45059581       0.13562068       0.47268720 </v>
   <v>      -0.36958524       0.19870992       0.40497747 </v>
   <v>       0.01198093      -0.48609640       0.34466610 </v>
   <v>       0.45330328      -0.04115171       0.29003972 </v>
   <v>      -0.46056464       0.12275206      -0.42035258 </v>
   <v>       0.46790137      -0.01954337       0.34321975 </v>
   <v>      -0.13028164       0.45041996      -0.41958876 </v>
   <v>      -0.13866304       0.44694611       0.36457583 </v>
   <v>      -0.44983427       0.13159131       0.36405150 </v>
   <v>      -0.46771630       0.10591359      -0.46988015 </v>
   <v>      -0.11335377       0.45875885      -0.46907690 </v>
   <v>      -0.11891991       0.45697492       0.41181968 </v>
   <v>      -0.46073390       0.11171783       0.41120024 </v>
   <v>       0.49856052       0.03509926       0.46995364 </v>
   <v>      -0.04253228       0.49393635       0.47094864 </v>
   <v>      -0.49940138       0.03644569       0.34324128 </v>
   <v>      -0.04374796       0.49161413       0.34421832 </v>
   <v>      -0.49173570       0.05774183      -0.47057451 </v>
   <v>      -0.06526388       0.48259495      -0.46958748 </v>
   <v>      -0.48685360       0.06115365       0.40906429 </v>
   <v>      -0.06845334       0.48108843       0.40992910 </v>
   <v>      -0.48554057       0.05815655       0.29001648 </v>
   <v>      -0.06530181       0.48323330       0.29081213 </v>
  </varray>
 </structure>
 <varray name="primitive_index" >
  <v type="int" >        1 </v>
  <v type="int" >       20 </v>
  <v type="int" >       15 </v>
  <v type="int" >       86 </v>
  <v type="int" >       18 </v>
  <v type="int" >       74 </v>
  <v type="int" >       16 </v>
  <v type="int" >        8 </v>
  <v type="int" >       17 </v>
  <v type="int" >       75 </v>
  <v type="int" >       12 </v>
  <v type="int" >       19 </v>
  <v type="int" >       85 </v>
  <v type="int" >       82 </v>
  <v type="int" >       80 </v>
  <v type="int" >       77 </v>
  <v type="int" >       11 </v>
  <v type="int" >      116 </v>
  <v type="int" >      117 </v>
  <v type="int" >       76 </v>
  <v type="int" >       13 </v>
  <v type="int" >       84 </v>
  <v type="int" >       73 </v>
  <v type="int" >      122 </v>
  <v type="int" >       10 </v>
  <v type="int" >      113 </v>
  <v type="int" >       14 </v>
  <v type="int" >       81 </v>
  <v type="int" >       50 </v>
  <v type="int" >        9 </v>
  <v type="int" >      110 </v>
  <v type="int" >       83 </v>
  <v type="int" >       51 </v>
  <v type="int" >      104 </v>
  <v type="int" >       49 </v>
  <v type="int" >       89 </v>
  <v type="int" >       94 </v>
  <v type="int" >        2 </v>
  <v type="int" >       52 </v>
  <v type="int" >       27 </v>
  <v type="int" >       32 </v>
  <v type="int" >       22 </v>
  <v type="int" >       21 </v>
  <v type="int" >       48 </v>
  <v type="int" >      109 </v>
  <v type="int" >       47 </v>
  <v type="int" >      103 </v>
  <v type="int" >       26 </v>
  <v type="int" >       31 </v>
  <v type="int" >       90 </v>
  <v type="int" >       93 </v>
  <v type="int" >       28 </v>
  <v type="int" >       23 </v>
  <v type="int" >       91 </v>
  <v type="int" >       88 </v>
  <v type="int" >      101 </v>
  <v type="int" >      105 </v>
  <v type="int" >        5 </v>
  <v type="int" >       30 </v>
  <v type="int" >       25 </v>
  <v type="int" >       29 </v>
  <v type="int" >       24 </v>
  <v type="int" >       57 </v>
  <v type="int" >       58 </v>
  <v type="int" >       46 </v>
  <v type="int" >       45 </v>
  <v type="int" >       92 </v>
  <v type="int" >       87 </v>
  <v type="int" >       36 </v>
  <v type="int" >       33 </v>
  <v type="int" >       97 </v>
  <v type="int" >      102 </v>
  <v type="int" >       56 </v>
  <v type="int" >       96 </v>
  <v type="int" >       59 </v>
  <v type="int" >       98 </v>
  <v type="int" >      106 </v>
  <v type="int" >       39 </v>
  <v type="int" >       95 </v>
  <v type="int" >       37 </v>
  <v type="int" >       62 </v>
  <v type="int" >       40 </v>
  <v type="int" >       34 </v>
  <v type="int" >       53 </v>
  <v type="int" >      108 </v>
  <v type="int" >      100 </v>
  <v type="int" >       60 </v>
  <v type="int" >       55 </v>
  <v type="int" >       61 </v>
  <v type="int" >       54 </v>
  <v type="int" >        3 </v>
  <v type="int" >        4 </v>
  <v type="int" >       38 </v>
  <v type="int" >       35 </v>
  <v type="int" >       41 </v>
  <v type="int" >       43 </v>
  <v type="int" >      119 </v>
  <v type="int" >      107 </v>
  <v type="int" >       68 </v>
  <v type="int" >       63 </v>
  <v type="int" >       99 </v>
  <v type="int" >       44 </v>
  <v type="int" >      118 </v>
  <v type="int" >      114 </v>
  <v type="int" >       42 </v>
  <v type="int" >      115 </v>
  <v type="int" >      112 </v>
  <v type="int" >      111 </v>
  <v type="int" >       78 </v>
  <v type="int" >       79 </v>
  <v type="int" >       71 </v>
  <v type="int" >       66 </v>
  <v type="int" >       64 </v>
  <v type="int" >       69 </v>
  <v type="int" >       67 </v>
  <v type="int" >       72 </v>
  <v type="int" >        6 </v>
  <v type="int" >        7 </v>
  <v type="int" >       65 </v>
  <v type="int" >       70 </v>
  <v type="int" >      120 </v>
  <v type="int" >      121 </v>
 </varray>
 <kpoints>
  <generation param="listgenerated">
   <i name="divisions" type="int">      20 </i>
   <v>       0.00000000       0.00000000       0.00000000 </v>
   <v>       0.50000000       0.00000000       0.00000000 </v>
   <v>       0.33333333       0.33333333       0.00000000 </v>
   <v>       0.00000000       0.00000000       0.00000000 </v>
  </generation>
  <varray name="kpointlist" >
   <v>       0.00000000       0.00000000       0.00000000 </v>
   <v>       0.02631579       0.00000000       0.00000000 </v>
   <v>       0.05263158       0.00000000       0.00000000 </v>
   <v>       0.07894737       0.00000000       0.00000000 </v>
   <v>       0.10526316       0.00000000       0.00000000 </v>
   <v>       0.13157895       0.00000000       0.00000000 </v>
   <v>       0.15789474       0.00000000       0.00000000 </v>
   <v>       0.18421053       0.00000000       0.00000000 </v>
   <v>       0.21052632       0.00000000       0.00000000 </v>
   <v>       0.23684211       0.00000000       0.00000000 </v>
   <v>       0.26315789       0.00000000       0.00000000 </v>
   <v>       0.28947368       0.00000000       0.00000000 </v>
   <v>       0.31578947       0.00000000       0.00000000 </v>
   <v>       0.34210526       0.00000000       0.00000000 </v>
   <v>       0.36842105       0.00000000       0.00000000 </v>
   <v>       0.39473684       0.00000000       0.00000000 </v>
   <v>       0.42105263       0.00000000       0.00000000 </v>
   <v>       0.44736842       0.00000000       0.00000000 </v>
   <v>       0.47368421       0.00000000       0.00000000 </v>
   <v>       0.50000000       0.00000000       0.00000000 </v>
   <v>       0.50000000       0.00000000       0.00000000 </v>
   <v>       0.49122807       0.01754386       0.00000000 </v>
   <v>       0.48245614       0.03508772       0.00000000 </v>
   <v>       0.47368421       0.05263158       0.00000000 </v>
   <v>       0.46491228       0.07017544       0.00000000 </v>
   <v>       0.45614035       0.08771930       0.00000000 </v>
   <v>       0.44736842       0.10526316       0.00000000 </v>
   <v>       0.43859649       0.12280702       0.00000000 </v>
   <v>       0.42982456       0.14035088       0.00000000 </v>
   <v>       0.42105263       0.15789474       0.00000000 </v>
   <v>       0.41228070       0.17543860       0.00000000 </v>
   <v>       0.40350877       0.19298246       0.00000000 </v>
   <v>       0.39473684       0.21052632       0.00000000 </v>
   <v>       0.38596491       0.22807018       0.00000000 </v>
   <v>       0.37719298       0.24561404       0.00000000 </v>
   <v>       0.36842105       0.26315789       0.00000000 </v>
   <v>       0.35964912       0.28070175       0.00000000 </v>
   <v>       0.35087719       0.29824561       0.00000000 </v>
   <v>       0.34210526       0.31578947       0.00000000 </v>
   <v>       0.33333333       0.33333333       0.00000000 </v>
   <v>       0.33333333       0.33333333       0.00000000 </v>
   <v>       0.31578947       0.31578947       0.00000000 </v>
   <v>       0.29824561       0.29824561       0.00000000 </v>
   <v>       0.28070175       0.28070175       0.00000000 </v>
   <v>       0.26315789       0.26315789       0.00000000 </v>
   <v>       0.24561404       0.24561404       0.00000000 </v>
   <v>       0.22807018       0.22807018       0.00000000 </v>
   <v>       0.21052632       0.21052632       0.00000000 </v>
   <v>       0.19298246       0.19298246       0.00000000 </v>
   <v>       0.17543860       0.17543860       0.00000000 </v>
   <v>       0.15789474       0.15789474       0.00000000 </v>
   <v>       0.14035088       0.14035088       0.00000000 </v>
   <v>       0.12280702       0.12280702       0.00000000 </v>
   <v>       0.10526316       0.10526316       0.00000000 </v>
   <v>       0.08771930       0.08771930       0.00000000 </v>
   <v>       0.07017544       0.07017544       0.00000000 </v>
   <v>       0.05263158       0.05263158       0.00000000 </v>
   <v>       0.03508772       0.03508772       0.00000000 </v>
   <v>       0.01754386       0.01754386       0.00000000 </v>
   <v>       0.00000000       0.00000000       0.00000000 </v>
  </varray>
  <varray name="weights" >
   <v>       0.01666667 </v>
   <v>       0.01666667 </v>
   <v>       0.01666667 </v>
   <v>       0.01666667 </v>
   <v>       0.01666667 </v>
   <v>       0.01666667 </v>
   <v>       0.01666667 </v>
   <v>       0.01666667 </v>
   <v>       0.01666667 </v>
   <v>       0.01666667 </v>
   <v>       0.01666667 </v>
   <v>       0.01666667 </v>
   <v>       0.01666667 </v>
   <v>       0.01666667 </v>
   <v>       0.01666667 </v>
   <v>       0.01666667 </v>
   <v>       0.01666667 </v>
   <v>       0.01666667 </v>
   <v>       0.01666667 </v>
   <v>       0.01666667 </v>
   <v>       0.01666667 </v>
   <v>       0.01666667 </v>
   <v>       0.01666667 </v>
   <v>       0.01666667 </v>
   <v>       0.01666667 </v>
   <v>       0.01666667 </v>
   <v>       0.01666667 </v>
   <v>       0.01666667 </v>
   <v>       0.01666667 </v>
   <v>       0.01666667 </v>
   <v>       0.01666667 </v>
   <v>       0.01666667 </v>
   <v>       0.01666667 </v>
   <v>       0.01666667 </v>
   <v>       0.01666667 </v>
   <v>       0.01666667 </v>
   <v>       0.01666667 </v>
   <v>       0.01666667 </v>
   <v>       0.01666667 </v>
   <v>       0.01666667 </v>
   <v>       0.01666667 </v>
   <v>       0.01666667 </v>
   <v>       0.01666667 </v>
   <v>       0.01666667 </v>
   <v>       0.01666667 </v>
   <v>       0.01666667 </v>
   <v>       0.01666667 </v>
   <v>       0.01666667 </v>
   <v>       0.01666667 </v>
   <v>       0.01666667 </v>
   <v>       0.01666667 </v>
   <v>       0.01666667 </v>
   <v>       0.01666667 </v>
   <v>       0.01666667 </v>
   <v>       0.01666667 </v>
   <v>       0.01666667 </v>
   <v>       0.01666667 </v>
   <v>       0.01666667 </v>
   <v>       0.01666667 </v>
   <v>       0.01666667 </v>
  </varray>
 </kpoints>
 <parameters>
  <separator name="general" >
   <i type="string" name="SYSTEM">Simulation for cell shape cell volume r</i>
   <i type="logical" name="LCOMPAT"> F  </i>
  </separator>
  <separator name="electronic" >
   <i type="string" name="PREC">high</i>
   <i name="ENMAX">    500.00000000</i>
   <i name="ENAUG">    644.87300000</i>
   <i name="EDIFF">      0.00001000</i>
   <i type="int" name="IALGO">    38</i>
   <i type="int" name="IWAVPR">    10</i>
   <i type="int" name="NBANDS">   272</i>
   <i name="NELECT">    400.00000000</i>
   <i type="int" name="TURBO">     0</i>
   <i type="int" name="IRESTART">     0</i>
   <i type="int" name="NREBOOT">     0</i>
   <i type="int" name="NMIN">     0</i>
   <i name="EREF">      0.00000000</i>
   <separator name="electronic smearing" >
    <i type="int" name="ISMEAR">     0</i>
    <i name="SIGMA">      0.01000000</i>
    <i name="KSPACING">      0.50000000</i>
    <i type="logical" name="KGAMMA"> T  </i>
   </separator>
   <separator name="electronic projectors" >
    <i type="logical" name="LREAL"> T  </i>
    <v name="ROPT">     -0.00040000     -0.00040000     -0.00040000     -0.00040000</v>
    <i type="int" name="LMAXPAW">  -100</i>
    <i type="int" name="LMAXMIX">     2</i>
    <i type="logical" name="NLSPLINE"> F  </i>
   </separator>
   <separator name="electronic startup" >
    <i type="int" name="ISTART">     1</i>
    <i type="int" name="ICHARG">    11</i>
    <i type="int" name="INIWAV">     1</i>
   </separator>
   <separator name="electronic spin" >
    <i type="int" name="ISPIN">     1</i>
    <i type="logical" name="LNONCOLLINEAR"> F  </i>
    <v name="MAGMOM">      1.00000000      1.00000000      1.00000000      1.00000000      1.00000000      1.00000000      1.00000000      1.00000000      1.00000000      1.00000000      1.00000000      1.00000000      1.00000000      1.00000000      1.00000000      1.00000000      1.00000000      1.00000000      1.00000000      1.00000000
      1.00000000      1.00000000      1.00000000      1.00000000      1.00000000      1.00000000      1.00000000      1.00000000      1.00000000      1.00000000      1.00000000      1.00000000      1.00000000      1.00000000      1.00000000      1.00000000      1.00000000      1.00000000      1.00000000      1.00000000
      1.00000000      1.00000000      1.00000000      1.00000000      1.00000000      1.00000000      1.00000000      1.00000000      1.00000000      1.00000000      1.00000000      1.00000000      1.00000000      1.00000000      1.00000000      1.00000000      1.00000000      1.00000000      1.00000000      1.00000000
      1.00000000      1.00000000      1.00000000      1.00000000      1.00000000      1.00000000      1.00000000      1.00000000      1.00000000      1.00000000      1.00000000      1.00000000      1.00000000      1.00000000      1.00000000      1.00000000      1.00000000      1.00000000      1.00000000      1.00000000
      1.00000000      1.00000000      1.00000000      1.00000000      1.00000000      1.00000000      1.00000000      1.00000000      1.00000000      1.00000000      1.00000000      1.00000000      1.00000000      1.00000000      1.00000000      1.00000000      1.00000000      1.00000000      1.00000000      1.00000000
      1.00000000      1.00000000      1.00000000      1.00000000      1.00000000      1.00000000      1.00000000      1.00000000      1.00000000      1.00000000      1.00000000      1.00000000      1.00000000      1.00000000      1.00000000      1.00000000      1.00000000      1.00000000      1.00000000      1.00000000
      1.00000000      1.00000000</v>
    <i name="NUPDOWN">     -1.00000000</i>
    <i type="logical" name="LSORBIT"> F  </i>
    <v name="SAXIS">      0.00000000      0.00000000      1.00000000</v>
    <i type="logical" name="LSPIRAL"> F  </i>
    <v name="QSPIRAL">      0.00000000      0.00000000      0.00000000</v>
    <i type="logical" name="LZEROZ"> F  </i>
   </separator>
   <separator name="electronic exchange-correlation" >
    <i type="logical" name="LASPH"> F  </i>
    <i type="logical" name="LMETAGGA"> F  </i>
   </separator>
   <separator name="electronic convergence" >
    <i type="int" name="NELM">   200</i>
    <i type="int" name="NELMDL">     0</i>
    <i type="int" name="NELMIN">     2</i>
    <i name="ENINI">    500.00000000</i>
    <separator name="electronic convergence detail" >
     <i type="logical" name="LDIAG"> T  </i>
     <i type="logical" name="LSUBROT"> F  </i>
     <i name="WEIMIN">      0.00000000</i>
     <i name="EBREAK">      0.00000001</i>
     <i name="DEPER">      0.30000000</i>
     <i type="int" name="NRMM">     4</i>
     <i name="TIME">      0.40000000</i>
    </separator>
   </separator>
   <separator name="electronic mixer" >
    <i name="AMIX">      0.40000000</i>
    <i name="BMIX">      1.00000000</i>
    <i name="AMIN">      0.10000000</i>
    <i name="AMIX_MAG">      1.60000000</i>
    <i name="BMIX_MAG">      1.00000000</i>
    <separator name="electronic mixer details" >
     <i type="int" name="IMIX">     4</i>
     <i type="logical" name="MIXFIRST"> F  </i>
     <i type="int" name="MAXMIX">   -45</i>
     <i name="WC">    100.00000000</i>
     <i type="int" name="INIMIX">     1</i>
     <i type="int" name="MIXPRE">     1</i>
     <i type="int" name="MREMOVE">     5</i>
    </separator>
   </separator>
   <separator name="electronic dipolcorrection" >
    <i type="logical" name="LDIPOL"> F  </i>
    <i type="logical" name="LMONO"> F  </i>
    <i type="int" name="IDIPOL">     0</i>
    <i name="EPSILON">      1.00000000</i>
    <v name="DIPOL">   -100.00000000   -100.00000000   -100.00000000</v>
    <i name="EFIELD">      0.00000000</i>
   </separator>
  </separator>
  <separator name="grids" >
   <i type="int" name="NGX">   240</i>
   <i type="int" name="NGY">   240</i>
   <i type="int" name="NGZ">   150</i>
   <i type="int" name="NGXF">   360</i>
   <i type="int" name="NGYF">   360</i>
   <i type="int" name="NGZF">   224</i>
   <i type="logical" name="ADDGRID"> F  </i>
  </separator>
  <separator name="ionic" >
   <i type="int" name="NSW">     0</i>
   <i type="int" name="IBRION">    -1</i>
   <i type="int" name="MDALGO">     0</i>
   <i type="int" name="ISIF">     2</i>
   <i name="PSTRESS">      0.00000000</i>
   <i name="EDIFFG">     -0.01000000</i>
   <i type="int" name="NFREE">     0</i>
   <i name="POTIM">      0.30000000</i>
   <i name="SMASS">     -3.00000000</i>
   <i name="SCALEE">      1.00000000</i>
  </separator>
  <separator name="ionic md" >
   <i name="TEBEG">      0.00010000</i>
   <i name="TEEND">      0.00010000</i>
   <i type="int" name="NBLOCK">     1</i>
   <i type="int" name="KBLOCK">     1</i>
   <i type="int" name="NPACO">   256</i>
   <i name="APACO">     16.00000000</i>
  </separator>
  <separator name="symmetry" >
   <i type="int" name="ISYM">     2</i>
   <i name="SYMPREC">      0.00001000</i>
  </separator>
  <separator name="dos" >
   <i type="int" name="LORBIT">     0</i>
   <v name="RWIGS">     -1.00000000     -1.00000000     -1.00000000     -1.00000000</v>
   <i type="int" name="NEDOS">   301</i>
   <i name="EMIN">     10.00000000</i>
   <i name="EMAX">    -10.00000000</i>
   <i name="EFERMI">      0.00000000</i>
  </separator>
  <separator name="writing" >
   <i type="int" name="NWRITE">     0</i>
   <i type="logical" name="LWAVE"> F  </i>
   <i type="logical" name="LDOWNSAMPLE"> F  </i>
   <i type="logical" name="LCHARG"> F  </i>
   <i type="logical" name="LPARD"> F  </i>
   <i type="logical" name="LVTOT"> F  </i>
   <i type="logical" name="LVHAR"> F  </i>
   <i type="logical" name="LELF"> F  </i>
   <i type="logical" name="LOPTICS"> F  </i>
   <v name="STM">      0.00000000      0.00000000      0.00000000      0.00000000      0.00000000      0.00000000      0.00000000</v>
  </separator>
  <separator name="performance" >
   <i type="int" name="NPAR">    16</i>
   <i type="int" name="NSIM">     4</i>
   <i type="int" name="NBLK">    -1</i>
   <i type="logical" name="LPLANE"> T  </i>
   <i type="logical" name="LSCALAPACK"> T  </i>
   <i type="logical" name="LSCAAWARE"> F  </i>
   <i type="logical" name="LSCALU"> F  </i>
   <i type="logical" name="LASYNC"> F  </i>
   <i type="logical" name="LORBITALREAL"> F  </i>
  </separator>
  <separator name="miscellaneous" >
   <i type="int" name="IDIOT">     3</i>
   <i type="int" name="ISPECIAL">     0</i>
   <i type="logical" name="LMUSIC"> F  </i>
   <v name="POMASS">     14.00100000     12.01100000      1.00000000     16.00000000</v>
   <v name="DARWINR">      0.00000000      0.00000000      0.00000000      0.00000000</v>
   <v name="DARWINV">      1.00000000      1.00000000      1.00000000      1.00000000</v>
   <i type="logical" name="LCORR"> T  </i>
  </separator>
  <i type="logical" name="GGA_COMPAT"> T  </i>
  <i type="logical" name="LBERRY"> F  </i>
  <i type="int" name="ICORELEVEL">     0</i>
  <i type="logical" name="LDAU"> F  </i>
  <i type="int" name="I_CONSTRAINED_M">     0</i>
  <separator name="electronic exchange-correlation" >
   <i type="string" name="GGA">PE</i>
   <i type="int" name="VOSKOWN">     0</i>
   <i type="logical" name="LHFCALC"> F  </i>
   <i type="string" name="PRECFOCK"></i>
   <i type="logical" name="LSYMGRAD"> F  </i>
   <i type="logical" name="LHFONE"> F  </i>
   <i type="logical" name="LRHFCALC"> F  </i>
   <i type="logical" name="LTHOMAS"> F  </i>
   <i type="logical" name="LMODELHF"> F  </i>
   <i name="ENCUT4O">     -1.00000000</i>
   <i type="int" name="EXXOEP">     0</i>
   <i type="int" name="FOURORBIT">     0</i>
   <i name="AEXX">      0.00000000</i>
   <i name="HFALPHA">      0.00000000</i>
   <i name="MCALPHA">      0.00000000</i>
   <i name="ALDAX">      1.00000000</i>
   <i name="AGGAX">      1.00000000</i>
   <i name="ALDAC">      1.00000000</i>
   <i name="AGGAC">      1.00000000</i>
   <i type="int" name="NKREDX">     1</i>
   <i type="int" name="NKREDY">     1</i>
   <i type="int" name="NKREDZ">     1</i>
   <i type="logical" name="SHIFTRED"> F  </i>
   <i type="logical" name="ODDONLY"> F  </i>
   <i type="logical" name="EVENONLY"> F  </i>
   <i type="int" name="LMAXFOCK">     0</i>
   <i type="int" name="NMAXFOCKAE">     0</i>
   <i type="logical" name="LFOCKAEDFT"> F  </i>
   <i name="HFSCREEN">      0.00000000</i>
   <i name="HFSCREENC">      0.00000000</i>
   <i type="int" name="NBANDSGWLOW">     0</i>
  </separator>
  <separator name="vdW DFT" >
   <i type="logical" name="LUSE_VDW"> F  </i>
   <i name="Zab_VDW">     -0.84910000</i>
   <i name="PARAM1">      0.12340000</i>
   <i name="PARAM2">      1.00000000</i>
   <i name="PARAM3">      0.00000000</i>
  </separator>
  <separator name="model GW" >
   <i type="int" name="MODEL_GW">     0</i>
   <i name="MODEL_EPS0">     86.98015194</i>
   <i name="MODEL_ALPHA">      1.00000000</i>
  </separator>
  <separator name="linear response parameters" >
   <i type="logical" name="LEPSILON"> F  </i>
   <i type="logical" name="LRPA"> F  </i>
   <i type="logical" name="LNABLA"> F  </i>
   <i type="logical" name="LVEL"> F  </i>
   <i type="int" name="KINTER">     0</i>
   <i name="CSHIFT">      0.10000000</i>
   <i name="OMEGAMAX">     -1.00000000</i>
   <i name="DEG_THRESHOLD">      0.00200000</i>
   <i name="RTIME">     -0.10000000</i>
   <i name="WPLASMAI">      0.00000000</i>
   <v name="DFIELD">      0.00000000      0.00000000      0.00000000</v>
   <v name="WPLASMA">      0.00000000      0.00000000      0.00000000      0.00000000      0.00000000      0.00000000      0.00000000      0.00000000      0.00000000</v>
  </separator>
  <separator name="orbital magnetization" >
   <i type="logical" name="NUCIND"> F  </i>
   <v name="MAGPOS">      0.00000000      0.00000000      0.00000000</v>
   <i type="logical" name="LNICSALL"> T  </i>
   <i type="logical" name="ORBITALMAG"> F  </i>
   <i type="logical" name="LMAGBLOCH"> F  </i>
   <i type="logical" name="LCHIMAG"> F  </i>
   <i type="logical" name="LGAUGE"> T  </i>
   <i type="int" name="MAGATOM">     0</i>
   <v name="MAGDIPOL">      0.00000000      0.00000000      0.00000000</v>
   <v name="AVECCONST">      0.00000000      0.00000000      0.00000000</v>
  </separator>
  <separator name="response functions" >
   <i type="logical" name="LADDER"> F  </i>
   <i type="logical" name="LRPAFORCE"> F  </i>
   <i type="logical" name="LFXC"> F  </i>
   <i type="logical" name="LHARTREE"> T  </i>
   <i type="int" name="IBSE">     0</i>
   <v type="int" name="KPOINT">    -1     0     0     0</v>
   <i type="logical" name="LTCTE"> F  </i>
   <i type="logical" name="LTETE"> F  </i>
   <i type="logical" name="LTRIPLET"> F  </i>
   <i type="logical" name="LFXCEPS"> F  </i>
   <i type="logical" name="LFXHEG"> F  </i>
   <i type="int" name="NATURALO">     2</i>
   <i type="logical" name="L2ORDER"> F  </i>
   <i type="logical" name="LMP2LT"> F  </i>
   <i type="logical" name="LUSEW"> F  </i>
   <i name="ENCUTGW">     -2.00000000</i>
   <i name="ENCUTGWSOFT">     -2.00000000</i>
   <i name="ENCUTLF">     -1.00000000</i>
   <i type="int" name="LMAXMP2">    -1</i>
   <i name="SCISSOR">      0.00000000</i>
   <i type="int" name="NOMEGA">     0</i>
   <i type="int" name="NOMEGAR">     0</i>
   <i type="int" name="NBANDSGW">    -1</i>
   <i type="int" name="NBANDSO">    -1</i>
   <i type="int" name="NBANDSV">    -1</i>
   <i type="int" name="NELM">   200</i>
   <i type="int" name="NELMHF">     1</i>
   <i type="int" name="DIM">     3</i>
   <i type="int" name="ANTIRES">     0</i>
   <i name="OMEGAMAX">    -30.00000000</i>
   <i name="OMEGAMIN">    -30.00000000</i>
   <i name="OMEGATL">   -200.00000000</i>
   <i type="int" name="OMEGAGRID">   140</i>
   <i name="CSHIFT">     -0.10000000</i>
   <i type="logical" name="SELFENERGY"> F  </i>
   <i type="logical" name="LSPECTRAL"> F  </i>
   <i type="logical" name="LSPECTRALGW"> F  </i>
   <i type="logical" name="LSINGLES"> F  </i>
   <i type="logical" name="LFERMIGW"> F  </i>
   <i type="logical" name="ODDONLYGW"> F  </i>
   <i type="logical" name="EVENONLYGW"> F  </i>
   <i type="int" name="NKREDLFX">     1</i>
   <i type="int" name="NKREDLFY">     1</i>
   <i type="int" name="NKREDLFZ">     1</i>
   <i type="int" name="MAXMEM">  2800</i>
   <i type="int" name="TELESCOPE">     0</i>
   <i type="int" name="TAUPAR">     1</i>
   <i type="int" name="OMEGAPAR">    -1</i>
   <i name="LAMBDA">      1.00000000</i>
  </separator>
  <separator name="External order field" >
   <i name="OFIELD_KAPPA">      0.00000000</i>
   <v name="OFIELD_K">      0.00000000      0.00000000      0.00000000</v>
   <i name="OFIELD_Q6_NEAR">      0.00000000</i>
   <i name="OFIELD_Q6_FAR">      0.00000000</i>
   <i name="OFIELD_A">      0.00000000</i>
  </separator>
  <separator name="solvation model" >
   <i type="logical" name="LSOL"> F  </i>
  </separator>
 </parameters>
 <atominfo>
  <atoms>     122 </atoms>
  <types>       4 </types>
  <array name="atoms" >
   <dimension dim="1">ion</dimension>
   <field type="string">element</field>
   <field type="int">atomtype</field>
   <set>
    <rc><c>N </c><c>   1</c></rc>
    <rc><c>N </c><c>   1</c></rc>
    <rc><c>N </c><c>   1</c></rc>
    <rc><c>N </c><c>   1</c></rc>
    <rc><c>N </c><c>   1</c></rc>
    <rc><c>N </c><c>   1</c></rc>
    <rc><c>N </c><c>   1</c></rc>
    <rc><c>N </c><c>   1</c></rc>
    <rc><c>C </c><c>   2</c></rc>
    <rc><c>C </c><c>   2</c></rc>
    <rc><c>C </c><c>   2</c></rc>
    <rc><c>C </c><c>   2</c></rc>
    <rc><c>C </c><c>   2</c></rc>
    <rc><c>C </c><c>   2</c></rc>
    <rc><c>C </c><c>   2</c></rc>
    <rc><c>C </c><c>   2</c></rc>
    <rc><c>C </c><c>   2</c></rc>
    <rc><c>C </c><c>   2</c></rc>
    <rc><c>C </c><c>   2</c></rc>
    <rc><c>C </c><c>   2</c></rc>
    <rc><c>C </c><c>   2</c></rc>
    <rc><c>C </c><c>   2</c></rc>
    <rc><c>C </c><c>   2</c></rc>
    <rc><c>C </c><c>   2</c></rc>
    <rc><c>C </c><c>   2</c></rc>
    <rc><c>C </c><c>   2</c></rc>
    <rc><c>C </c><c>   2</c></rc>
    <rc><c>C </c><c>   2</c></rc>
    <rc><c>C </c><c>   2</c></rc>
    <rc><c>C </c><c>   2</c></rc>
    <rc><c>C </c><c>   2</c></rc>
    <rc><c>C </c><c>   2</c></rc>
    <rc><c>C </c><c>   2</c></rc>
    <rc><c>C </c><c>   2</c></rc>
    <rc><c>C </c><c>   2</c></rc>
    <rc><c>C </c><c>   2</c></rc>
    <rc><c>C </c><c>   2</c></rc>
    <rc><c>C </c><c>   2</c></rc>
    <rc><c>C </c><c>   2</c></rc>
    <rc><c>C </c><c>   2</c></rc>
    <rc><c>C </c><c>   2</c></rc>
    <rc><c>C </c><c>   2</c></rc>
    <rc><c>C </c><c>   2</c></rc>
    <rc><c>C </c><c>   2</c></rc>
    <rc><c>C </c><c>   2</c></rc>
    <rc><c>C </c><c>   2</c></rc>
    <rc><c>C </c><c>   2</c></rc>
    <rc><c>C </c><c>   2</c></rc>
    <rc><c>C </c><c>   2</c></rc>
    <rc><c>C </c><c>   2</c></rc>
    <rc><c>C </c><c>   2</c></rc>
    <rc><c>C </c><c>   2</c></rc>
    <rc><c>C </c><c>   2</c></rc>
    <rc><c>C </c><c>   2</c></rc>
    <rc><c>C </c><c>   2</c></rc>
    <rc><c>C </c><c>   2</c></rc>
    <rc><c>C </c><c>   2</c></rc>
    <rc><c>C </c><c>   2</c></rc>
    <rc><c>C </c><c>   2</c></rc>
    <rc><c>C </c><c>   2</c></rc>
    <rc><c>C </c><c>   2</c></rc>
    <rc><c>C </c><c>   2</c></rc>
    <rc><c>C </c><c>   2</c></rc>
    <rc><c>C </c><c>   2</c></rc>
    <rc><c>C </c><c>   2</c></rc>
    <rc><c>C </c><c>   2</c></rc>
    <rc><c>C </c><c>   2</c></rc>
    <rc><c>C </c><c>   2</c></rc>
    <rc><c>C </c><c>   2</c></rc>
    <rc><c>C </c><c>   2</c></rc>
    <rc><c>C </c><c>   2</c></rc>
    <rc><c>C </c><c>   2</c></rc>
    <rc><c>C </c><c>   2</c></rc>
    <rc><c>C </c><c>   2</c></rc>
    <rc><c>C </c><c>   2</c></rc>
    <rc><c>C </c><c>   2</c></rc>
    <rc><c>C </c><c>   2</c></rc>
    <rc><c>C </c><c>   2</c></rc>
    <rc><c>C </c><c>   2</c></rc>
    <rc><c>C </c><c>   2</c></rc>
    <rc><c>H </c><c>   3</c></rc>
    <rc><c>H </c><c>   3</c></rc>
    <rc><c>H </c><c>   3</c></rc>
    <rc><c>H </c><c>   3</c></rc>
    <rc><c>H </c><c>   3</c></rc>
    <rc><c>H </c><c>   3</c></rc>
    <rc><c>H </c><c>   3</c></rc>
    <rc><c>H </c><c>   3</c></rc>
    <rc><c>H </c><c>   3</c></rc>
    <rc><c>H </c><c>   3</c></rc>
    <rc><c>H </c><c>   3</c></rc>
    <rc><c>H </c><c>   3</c></rc>
    <rc><c>H </c><c>   3</c></rc>
    <rc><c>H </c><c>   3</c></rc>
    <rc><c>H </c><c>   3</c></rc>
    <rc><c>H </c><c>   3</c></rc>
    <rc><c>H </c><c>   3</c></rc>
    <rc><c>H </c><c>   3</c></rc>
    <rc><c>H </c><c>   3</c></rc>
    <rc><c>H </c><c>   3</c></rc>
    <rc><c>H </c><c>   3</c></rc>
    <rc><c>H </c><c>   3</c></rc>
    <rc><c>H </c><c>   3</c></rc>
    <rc><c>H </c><c>   3</c></rc>
    <rc><c>H </c><c>   3</c></rc>
    <rc><c>H </c><c>   3</c></rc>
    <rc><c>H </c><c>   3</c></rc>
    <rc><c>H </c><c>   3</c></rc>
    <rc><c>H </c><c>   3</c></rc>
    <rc><c>H </c><c>   3</c></rc>
    <rc><c>H </c><c>   3</c></rc>
    <rc><c>H </c><c>   3</c></rc>
    <rc><c>H </c><c>   3</c></rc>
    <rc><c>H </c><c>   3</c></rc>
    <rc><c>H </c><c>   3</c></rc>
    <rc><c>H </c><c>   3</c></rc>
    <rc><c>O </c><c>   4</c></rc>
    <rc><c>O </c><c>   4</c></rc>
    <rc><c>O </c><c>   4</c></rc>
    <rc><c>O </c><c>   4</c></rc>
    <rc><c>O </c><c>   4</c></rc>
    <rc><c>O </c><c>   4</c></rc>
   </set>
  </array>
  <array name="atomtypes" >
   <dimension dim="1">type</dimension>
   <field type="int">atomspertype</field>
   <field type="string">element</field>
   <field>mass</field>
   <field>valence</field>
   <field type="string">pseudopotential</field>
   <set>
    <rc><c>   8</c><c>N </c><c>     14.00100000</c><c>      5.00000000</c><c>  PAW_PBE N 08Apr2002                   </c></rc>
    <rc><c>  72</c><c>C </c><c>     12.01100000</c><c>      4.00000000</c><c>  PAW_PBE C 08Apr2002                   </c></rc>
    <rc><c>  36</c><c>H </c><c>      1.00000000</c><c>      1.00000000</c><c>  PAW_PBE H 15Jun2001                   </c></rc>
    <rc><c>   6</c><c>O </c><c>     16.00000000</c><c>      6.00000000</c><c>  PAW_PBE O 08Apr2002                   </c></rc>
   </set>
  </array>
 </atominfo>
 <structure name="initialpos" >
  <crystal>
   <varray name="basis" >
    <v>      31.99058879      -0.00204393       0.00000000 </v>
    <v>     -15.99697046      27.64347083       0.00000000 </v>
    <v>       0.00000000       0.00000000      20.00000000 </v>
   </varray>
   <i name="volume">  17685.96422731 </i>
   <varray name="rec_basis" >
    <v>       0.03126035       0.01809002       0.00000000 </v>
    <v>       0.00000231       0.03617625       0.00000000 </v>
    <v>       0.00000000       0.00000000       0.05000000 </v>
   </varray>
  </crystal>
  <varray name="positions" >
   <v>       0.45927688       0.53261743       0.52971637 </v>
   <v>       0.31742000       0.67463398       0.48799965 </v>
   <v>       0.46310752       0.95874003       0.52914000 </v>
   <v>       0.03376158       0.53639117       0.52992092 </v>
   <v>       0.65104429       0.34204958       0.48781750 </v>
   <v>       0.50826430       0.05774183       0.52942549 </v>
   <v>       0.93473612       0.48259495       0.53041252 </v>
   <v>       0.51286383       0.48736701       0.52885107 </v>
   <v>       0.34377768       0.64987980       0.48534034 </v>
   <v>       0.33078609       0.60951428       0.52644961 </v>
   <v>       0.35621540       0.58477089       0.52301638 </v>
   <v>       0.39494249       0.59918260       0.47815253 </v>
   <v>       0.40775061       0.63976937       0.43744940 </v>
   <v>       0.38283610       0.66498900       0.44106238 </v>
   <v>       0.47087408       0.52170946       0.47009680 </v>
   <v>       0.42118486       0.57234741       0.47313866 </v>
   <v>       0.43354893       0.56097387       0.41152230 </v>
   <v>       0.45800513       0.53496230       0.40925089 </v>
   <v>       0.46869504       0.52118028       0.34333102 </v>
   <v>       0.43509841       0.55652118       0.53057353 </v>
   <v>       0.34237779       0.72577045       0.48489871 </v>
   <v>       0.26640715       0.64822533       0.48528790 </v>
   <v>       0.32644423       0.74998711       0.44237251 </v>
   <v>       0.35192396       0.80019218       0.43848286 </v>
   <v>       0.39367879       0.82785304       0.47710758 </v>
   <v>       0.40902720       0.80329158       0.52006237 </v>
   <v>       0.38400628       0.75305560       0.52380681 </v>
   <v>       0.23908114       0.66316053       0.52295592 </v>
   <v>       0.18893461       0.63765512       0.51938284 </v>
   <v>       0.16442974       0.59676595       0.47795306 </v>
   <v>       0.19211657       0.58198897       0.44076924 </v>
   <v>       0.24224924       0.60704247       0.44441340 </v>
   <v>       0.42067593       0.88101057       0.47221568 </v>
   <v>       0.43005566       0.90505621       0.41092184 </v>
   <v>       0.45632824       0.95561564       0.40894014 </v>
   <v>       0.11135206       0.57030219       0.47316132 </v>
   <v>       0.08727883       0.55377999       0.41217609 </v>
   <v>       0.03680316       0.52933776       0.41021097 </v>
   <v>       0.43880596       0.91058270       0.52965782 </v>
   <v>       0.08184526       0.56039848       0.53034246 </v>
   <v>       0.47195483       0.98153178       0.46984085 </v>
   <v>       0.46790137       0.98045663       0.34321975 </v>
   <v>       0.01095666       0.52079779       0.47087611 </v>
   <v>       0.01198093       0.51390360       0.34466610 </v>
   <v>       0.62643273       0.29088443       0.48505450 </v>
   <v>       0.70216044       0.36831459       0.48513068 </v>
   <v>       0.62483002       0.36681869       0.48458703 </v>
   <v>       0.58377920       0.34978622       0.44357190 </v>
   <v>       0.55888894       0.37501499       0.43959543 </v>
   <v>       0.57368767       0.41761960       0.47661987 </v>
   <v>       0.61447940       0.43405917       0.51810565 </v>
   <v>       0.63985432       0.40930119       0.52195045 </v>
   <v>       0.64254483       0.26695284       0.44230507 </v>
   <v>       0.61751565       0.21672852       0.43858368 </v>
   <v>       0.57609702       0.18880070       0.47768193 </v>
   <v>       0.56067236       0.21309070       0.52103754 </v>
   <v>       0.58521096       0.26333199       0.52456421 </v>
   <v>       0.72643085       0.40743499       0.44089531 </v>
   <v>       0.77657639       0.43208877       0.43730254 </v>
   <v>       0.80402733       0.41895054       0.47800956 </v>
   <v>       0.77939002       0.38012885       0.52274223 </v>
   <v>       0.72921945       0.35495316       0.52612701 </v>
   <v>       0.54940419       0.13562068       0.47268720 </v>
   <v>       0.49856052       0.03509926       0.46995364 </v>
   <v>       0.51314640       0.06115365       0.40906429 </v>
   <v>       0.53926610       0.11171783       0.41120024 </v>
   <v>       0.50059862       0.03644569       0.34324128 </v>
   <v>       0.85711849       0.44492069       0.47326861 </v>
   <v>       0.95746772       0.49393635       0.47094864 </v>
   <v>       0.93154666       0.48108843       0.40992910 </v>
   <v>       0.88108009       0.45697492       0.41181968 </v>
   <v>       0.95625204       0.49161413       0.34421832 </v>
   <v>       0.54733137       0.44432920       0.47176878 </v>
   <v>       0.49783795       0.49519886       0.46975845 </v>
   <v>       0.50707858       0.47868109       0.40887786 </v>
   <v>       0.53145378       0.45256568       0.41071886 </v>
   <v>       0.49270482       0.48920044       0.34326109 </v>
   <v>       0.53228370       0.10591359       0.53011985 </v>
   <v>       0.88664623       0.45875885       0.53092310 </v>
   <v>       0.53690064       0.46332959       0.52914879 </v>
   <v>       0.30044141       0.59763184       0.56080108 </v>
   <v>       0.34534574       0.55320248       0.55483517 </v>
   <v>       0.39322512       0.69640914       0.40922007 </v>
   <v>       0.43791587       0.65184038       0.40267226 </v>
   <v>       0.42349761       0.57083724       0.36441422 </v>
   <v>       0.42653794       0.56468631       0.58019132 </v>
   <v>       0.33910903       0.81843511       0.40514965 </v>
   <v>       0.29413007       0.72911438       0.41213342 </v>
   <v>       0.39665510       0.73448474       0.55672334 </v>
   <v>       0.44154232       0.82385443       0.55015907 </v>
   <v>       0.25754698       0.69507973       0.55474104 </v>
   <v>       0.16839562       0.65014137       0.54842996 </v>
   <v>       0.17398587       0.55011913       0.40875128 </v>
   <v>       0.26310582       0.59504484       0.41525033 </v>
   <v>       0.41841454       0.88532493       0.36373409 </v>
   <v>       0.10692502       0.56049567       0.36512622 </v>
   <v>       0.43226835       0.89365423       0.57907533 </v>
   <v>       0.09879964       0.57227787       0.57951436 </v>
   <v>       0.63041476       0.19870992       0.40497747 </v>
   <v>       0.67460907       0.28807148       0.41169893 </v>
   <v>       0.57250273       0.28172383       0.55772056 </v>
   <v>       0.52845370       0.19229081       0.55158838 </v>
   <v>       0.57173329       0.31678282       0.41459915 </v>
   <v>       0.52711759       0.36127533       0.40748483 </v>
   <v>       0.70564005       0.41806545       0.40907472 </v>
   <v>       0.79491489       0.46229055       0.40254010 </v>
   <v>       0.79984034       0.36897622       0.55447042 </v>
   <v>       0.71050232       0.32451043       0.56035654 </v>
   <v>       0.67171277       0.42279388       0.55376408 </v>
   <v>       0.62697779       0.46722396       0.54698512 </v>
   <v>       0.55016573       0.13159131       0.36405150 </v>
   <v>       0.86133696       0.44694611       0.36457583 </v>
   <v>       0.53863434       0.44012841       0.36356302 </v>
   <v>       0.53943536       0.12275206       0.57964742 </v>
   <v>       0.86971836       0.45041996       0.58041124 </v>
   <v>       0.54829117       0.45771335       0.57836479 </v>
   <v>       0.45906732       0.53348706       0.29011877 </v>
   <v>       0.45330328       0.95884829       0.29003972 </v>
   <v>       0.03342997       0.51835339       0.29199329 </v>
   <v>       0.51445943       0.05815655       0.29001648 </v>
   <v>       0.93469819       0.48323330       0.29081213 </v>
   <v>       0.49934513       0.47428376       0.29012557 </v>
  </varray>
 </structure>
 <calculation>
  <scstep>
   <time name="dav">  827.48  836.41</time>
   <time name="total">  827.78  836.72</time>
   <energy>
    <i name="alphaZ">     42.46736944 </i>
    <i name="ewald">  51792.44952240 </i>
    <i name="hartreedc"> -64630.30844386 </i>
    <i name="XCdc">   1415.75575923 </i>
    <i name="pawpsdc">  37201.90474286 </i>
    <i name="pawaedc"> -37274.90853966 </i>
    <i name="eentropy">     -0.00000000 </i>
    <i name="bandstr">  -5184.31962684 </i>
    <i name="atom">  15754.61523927 </i>
    <i name="e_fr_energy">   -882.34397716 </i>
    <i name="e_wo_entrp">   -882.34397716 </i>
    <i name="e_0_energy">   -882.34397716 </i>
   </energy>
  </scstep>
  <scstep>
   <time name="dav">  956.31  966.66</time>
   <time name="total">  956.31  966.67</time>
   <energy>
    <i name="e_fr_energy">   -882.75495298 </i>
    <i name="e_wo_entrp">   -882.75495298 </i>
    <i name="e_0_energy">   -882.75495298 </i>
   </energy>
  </scstep>
  <scstep>
   <time name="dav"> 1056.65 1068.13</time>
   <time name="total"> 1056.65 1068.13</time>
   <energy>
    <i name="e_fr_energy">   -882.76678149 </i>
    <i name="e_wo_entrp">   -882.76678149 </i>
    <i name="e_0_energy">   -882.76678149 </i>
   </energy>
  </scstep>
  <scstep>
   <time name="dav">  935.65  945.68</time>
   <time name="total">  935.65  945.68</time>
   <energy>
    <i name="e_fr_energy">   -882.76693082 </i>
    <i name="e_wo_entrp">   -882.76693082 </i>
    <i name="e_0_energy">   -882.76693082 </i>
   </energy>
  </scstep>
  <scstep>
   <time name="dav">  859.44  868.60</time>
   <time name="total">  859.45  868.61</time>
   <energy>
    <i name="alphaZ">     42.46736944 </i>
    <i name="ewald">  51792.44952240 </i>
    <i name="hartreedc"> -64630.30844386 </i>
    <i name="XCdc">   1415.75575923 </i>
    <i name="pawpsdc">  37201.90474286 </i>
    <i name="pawaedc"> -37274.90853966 </i>
    <i name="eentropy">     -0.00000000 </i>
    <i name="bandstr">  -5184.74258803 </i>
    <i name="atom">  15754.61523927 </i>
    <i name="e_fr_energy">   -882.76693836 </i>
    <i name="e_wo_entrp">   -882.76693836 </i>
    <i name="e_0_energy">   -882.76693836 </i>
   </energy>
  </scstep>
  <structure>
   <crystal>
    <varray name="basis" >
     <v>      31.99058879      -0.00204393       0.00000000 </v>
     <v>     -15.99697046      27.64347083       0.00000000 </v>
     <v>       0.00000000       0.00000000      20.00000000 </v>
    </varray>
    <i name="volume">  17685.96422731 </i>
    <varray name="rec_basis" >
     <v>       0.03126035       0.01809002       0.00000000 </v>
     <v>       0.00000231       0.03617625       0.00000000 </v>
     <v>       0.00000000       0.00000000       0.05000000 </v>
    </varray>
   </crystal>
   <varray name="positions" >
    <v>       0.45927688       0.53261743       0.52971637 </v>
    <v>       0.31742000       0.67463398       0.48799965 </v>
    <v>       0.46310752       0.95874003       0.52914000 </v>
    <v>       0.03376158       0.53639117       0.52992092 </v>
    <v>       0.65104429       0.34204958       0.48781750 </v>
    <v>       0.50826430       0.05774183       0.52942549 </v>
    <v>       0.93473612       0.48259495       0.53041252 </v>
    <v>       0.51286383       0.48736701       0.52885107 </v>
    <v>       0.34377768       0.64987980       0.48534034 </v>
    <v>       0.33078609       0.60951428       0.52644961 </v>
    <v>       0.35621540       0.58477089       0.52301638 </v>
    <v>       0.39494249       0.59918260       0.47815253 </v>
    <v>       0.40775061       0.63976937       0.43744940 </v>
    <v>       0.38283610       0.66498900       0.44106238 </v>
    <v>       0.47087408       0.52170946       0.47009680 </v>
    <v>       0.42118486       0.57234741       0.47313866 </v>
    <v>       0.43354893       0.56097387       0.41152230 </v>
    <v>       0.45800513       0.53496230       0.40925089 </v>
    <v>       0.46869504       0.52118028       0.34333102 </v>
    <v>       0.43509841       0.55652118       0.53057353 </v>
    <v>       0.34237779       0.72577045       0.48489871 </v>
    <v>       0.26640715       0.64822533       0.48528790 </v>
    <v>       0.32644423       0.74998711       0.44237251 </v>
    <v>       0.35192396       0.80019218       0.43848286 </v>
    <v>       0.39367879       0.82785304       0.47710758 </v>
    <v>       0.40902720       0.80329158       0.52006237 </v>
    <v>       0.38400628       0.75305560       0.52380681 </v>
    <v>       0.23908114       0.66316053       0.52295592 </v>
    <v>       0.18893461       0.63765512       0.51938284 </v>
    <v>       0.16442974       0.59676595       0.47795306 </v>
    <v>       0.19211657       0.58198897       0.44076924 </v>
    <v>       0.24224924       0.60704247       0.44441340 </v>
    <v>       0.42067593       0.88101057       0.47221568 </v>
    <v>       0.43005566       0.90505621       0.41092184 </v>
    <v>       0.45632824       0.95561564       0.40894014 </v>
    <v>       0.11135206       0.57030219       0.47316132 </v>
    <v>       0.08727883       0.55377999       0.41217609 </v>
    <v>       0.03680316       0.52933776       0.41021097 </v>
    <v>       0.43880596       0.91058270       0.52965782 </v>
    <v>       0.08184526       0.56039848       0.53034246 </v>
    <v>       0.47195483       0.98153178       0.46984085 </v>
    <v>       0.46790137       0.98045663       0.34321975 </v>
    <v>       0.01095666       0.52079779       0.47087611 </v>
    <v>       0.01198093       0.51390360       0.34466610 </v>
    <v>       0.62643273       0.29088443       0.48505450 </v>
    <v>       0.70216044       0.36831459       0.48513068 </v>
    <v>       0.62483002       0.36681869       0.48458703 </v>
    <v>       0.58377920       0.34978622       0.44357190 </v>
    <v>       0.55888894       0.37501499       0.43959543 </v>
    <v>       0.57368767       0.41761960       0.47661987 </v>
    <v>       0.61447940       0.43405917       0.51810565 </v>
    <v>       0.63985432       0.40930119       0.52195045 </v>
    <v>       0.64254483       0.26695284       0.44230507 </v>
    <v>       0.61751565       0.21672852       0.43858368 </v>
    <v>       0.57609702       0.18880070       0.47768193 </v>
    <v>       0.56067236       0.21309070       0.52103754 </v>
    <v>       0.58521096       0.26333199       0.52456421 </v>
    <v>       0.72643085       0.40743499       0.44089531 </v>
    <v>       0.77657639       0.43208877       0.43730254 </v>
    <v>       0.80402733       0.41895054       0.47800956 </v>
    <v>       0.77939002       0.38012885       0.52274223 </v>
    <v>       0.72921945       0.35495316       0.52612701 </v>
    <v>       0.54940419       0.13562068       0.47268720 </v>
    <v>       0.49856052       0.03509926       0.46995364 </v>
    <v>       0.51314640       0.06115365       0.40906429 </v>
    <v>       0.53926610       0.11171783       0.41120024 </v>
    <v>       0.50059862       0.03644569       0.34324128 </v>
    <v>       0.85711849       0.44492069       0.47326861 </v>
    <v>       0.95746772       0.49393635       0.47094864 </v>
    <v>       0.93154666       0.48108843       0.40992910 </v>
    <v>       0.88108009       0.45697492       0.41181968 </v>
    <v>       0.95625204       0.49161413       0.34421832 </v>
    <v>       0.54733137       0.44432920       0.47176878 </v>
    <v>       0.49783795       0.49519886       0.46975845 </v>
    <v>       0.50707858       0.47868109       0.40887786 </v>
    <v>       0.53145378       0.45256568       0.41071886 </v>
    <v>       0.49270482       0.48920044       0.34326109 </v>
    <v>       0.53228370       0.10591359       0.53011985 </v>
    <v>       0.88664623       0.45875885       0.53092310 </v>
    <v>       0.53690064       0.46332959       0.52914879 </v>
    <v>       0.30044141       0.59763184       0.56080108 </v>
    <v>       0.34534574       0.55320248       0.55483517 </v>
    <v>       0.39322512       0.69640914       0.40922007 </v>
    <v>       0.43791587       0.65184038       0.40267226 </v>
    <v>       0.42349761       0.57083724       0.36441422 </v>
    <v>       0.42653794       0.56468631       0.58019132 </v>
    <v>       0.33910903       0.81843511       0.40514965 </v>
    <v>       0.29413007       0.72911438       0.41213342 </v>
    <v>       0.39665510       0.73448474       0.55672334 </v>
    <v>       0.44154232       0.82385443       0.55015907 </v>
    <v>       0.25754698       0.69507973       0.55474104 </v>
    <v>       0.16839562       0.65014137       0.54842996 </v>
    <v>       0.17398587       0.55011913       0.40875128 </v>
    <v>       0.26310582       0.59504484       0.41525033 </v>
    <v>       0.41841454       0.88532493       0.36373409 </v>
    <v>       0.10692502       0.56049567       0.36512622 </v>
    <v>       0.43226835       0.89365423       0.57907533 </v>
    <v>       0.09879964       0.57227787       0.57951436 </v>
    <v>       0.63041476       0.19870992       0.40497747 </v>
    <v>       0.67460907       0.28807148       0.41169893 </v>
    <v>       0.57250273       0.28172383       0.55772056 </v>
    <v>       0.52845370       0.19229081       0.55158838 </v>
    <v>       0.57173329       0.31678282       0.41459915 </v>
    <v>       0.52711759       0.36127533       0.40748483 </v>
    <v>       0.70564005       0.41806545       0.40907472 </v>
    <v>       0.79491489       0.46229055       0.40254010 </v>
    <v>       0.79984034       0.36897622       0.55447042 </v>
    <v>       0.71050232       0.32451043       0.56035654 </v>
    <v>       0.67171277       0.42279388       0.55376408 </v>
    <v>       0.62697779       0.46722396       0.54698512 </v>
    <v>       0.55016573       0.13159131       0.36405150 </v>
    <v>       0.86133696       0.44694611       0.36457583 </v>
    <v>       0.53863434       0.44012841       0.36356302 </v>
    <v>       0.53943536       0.12275206       0.57964742 </v>
    <v>       0.86971836       0.45041996       0.58041124 </v>
    <v>       0.54829117       0.45771335       0.57836479 </v>
    <v>       0.45906732       0.53348706       0.29011877 </v>
    <v>       0.45330328       0.95884829       0.29003972 </v>
    <v>       0.03342997       0.51835339       0.29199329 </v>
    <v>       0.51445943       0.05815655       0.29001648 </v>
    <v>       0.93469819       0.48323330       0.29081213 </v>
    <v>       0.49934513       0.47428376       0.29012557 </v>
   </varray>
  </structure>
  <varray name="forces" >
   <v>      -0.00180087      -0.00028735       0.00162869 </v>
   <v>      -0.00255610      -0.00339109      -0.00061021 </v>
   <v>       0.00090659      -0.00618234      -0.00415729 </v>
   <v>       0.00704692       0.00121376       0.00140274 </v>
   <v>       0.00260082       0.00281751      -0.00146950 </v>
   <v>      -0.00107195       0.00842147       0.00226706 </v>
   <v>      -0.00710872      -0.00012500       0.00050833 </v>
   <v>       0.00166091      -0.00243437      -0.00448504 </v>
   <v>       0.00050120      -0.00044141       0.00130755 </v>
   <v>       0.00089365      -0.00510759       0.00124511 </v>
   <v>       0.00093146       0.00063213       0.00015415 </v>
   <v>      -0.00374292      -0.00121246       0.00140566 </v>
   <v>      -0.00112328       0.00106626      -0.00100416 </v>
   <v>       0.00529862       0.00183707      -0.00371925 </v>
   <v>       0.00904103      -0.00644816       0.00040686 </v>
   <v>      -0.00663444       0.00567710      -0.00102779 </v>
   <v>       0.00145557      -0.00058456      -0.00082695 </v>
   <v>      -0.00115887       0.00031909      -0.00227725 </v>
   <v>       0.00233606      -0.00419734      -0.00308641 </v>
   <v>       0.00083099      -0.00182153       0.00169744 </v>
   <v>      -0.00074026       0.00014588      -0.00047577 </v>
   <v>       0.00110607       0.00485160       0.00046108 </v>
   <v>      -0.00275195       0.00356349      -0.00062159 </v>
   <v>       0.00165790      -0.00116161      -0.00061894 </v>
   <v>       0.00042166       0.00334951       0.00127936 </v>
   <v>       0.00117378      -0.00226023       0.00183256 </v>
   <v>       0.00190607       0.00267033       0.00207316 </v>
   <v>      -0.00294783       0.00061160       0.00062392 </v>
   <v>       0.00348314       0.00004146       0.00389436 </v>
   <v>      -0.00933881      -0.00894732      -0.00050134 </v>
   <v>       0.00544574       0.00085265      -0.00165522 </v>
   <v>      -0.00433911      -0.00325422       0.00234103 </v>
   <v>      -0.00082853      -0.00441727      -0.00062753 </v>
   <v>       0.00211016       0.00311787      -0.00065700 </v>
   <v>       0.00037874       0.00161409       0.00212414 </v>
   <v>       0.00555266       0.00305822      -0.00018296 </v>
   <v>      -0.00004397      -0.00444217      -0.00384365 </v>
   <v>       0.00424320       0.00111623      -0.00131849 </v>
   <v>       0.00661931       0.00132484       0.00248438 </v>
   <v>      -0.00228991       0.00190184       0.00311308 </v>
   <v>       0.00039277       0.00702993      -0.00053914 </v>
   <v>       0.00486910       0.00359283       0.00485817 </v>
   <v>      -0.00912116      -0.00614891       0.00541809 </v>
   <v>       0.00343798       0.00429482      -0.00339740 </v>
   <v>      -0.00045359       0.00146149       0.00158133 </v>
   <v>      -0.00519503      -0.00128643      -0.00199248 </v>
   <v>      -0.00186768      -0.00044379      -0.00037066 </v>
   <v>      -0.00293461       0.00139892       0.00002060 </v>
   <v>       0.00602287      -0.00294329      -0.00385374 </v>
   <v>      -0.00211018       0.00177865      -0.00102776 </v>
   <v>       0.00283316       0.00174471       0.00336273 </v>
   <v>       0.00180799       0.00032809       0.00124446 </v>
   <v>       0.00125341      -0.00599589      -0.00061309 </v>
   <v>      -0.00233492       0.00489335      -0.00064332 </v>
   <v>       0.00086594      -0.00632643      -0.00472625 </v>
   <v>      -0.00200695      -0.00178483       0.00337881 </v>
   <v>      -0.00257759       0.00276524       0.00219037 </v>
   <v>       0.00180598       0.00535768      -0.00046140 </v>
   <v>      -0.00397389      -0.00382763       0.00179145 </v>
   <v>       0.00229773       0.00449266      -0.00103783 </v>
   <v>       0.00088145       0.00120821       0.00252236 </v>
   <v>       0.00266953      -0.00252876       0.00325446 </v>
   <v>      -0.00145682       0.00429460      -0.00518645 </v>
   <v>      -0.00061187      -0.01305382      -0.00485214 </v>
   <v>      -0.00121276       0.00213640      -0.00004223 </v>
   <v>      -0.00055417       0.00351460       0.00223602 </v>
   <v>       0.00387824      -0.00661892       0.00440113 </v>
   <v>      -0.00733518      -0.00379086       0.00310737 </v>
   <v>       0.00994348       0.00364519       0.00054361 </v>
   <v>      -0.00064550      -0.00232672      -0.00272113 </v>
   <v>      -0.00171658       0.00357906      -0.00044172 </v>
   <v>      -0.00173893       0.00447111      -0.00062582 </v>
   <v>       0.00034728      -0.00084964       0.00048630 </v>
   <v>      -0.00639099       0.00375267       0.00380633 </v>
   <v>       0.00417617      -0.00246044       0.00337262 </v>
   <v>      -0.00316382       0.00068471      -0.00215577 </v>
   <v>      -0.00405058       0.00570878       0.00294010 </v>
   <v>      -0.00170435      -0.00435514       0.00345157 </v>
   <v>       0.00212740      -0.00311554      -0.00108628 </v>
   <v>      -0.00461599       0.00313426       0.00451533 </v>
   <v>       0.00198529       0.00069193      -0.00114981 </v>
   <v>       0.00035200       0.00033065      -0.00199605 </v>
   <v>      -0.00079340      -0.00010949       0.00252577 </v>
   <v>       0.00040210       0.00253996      -0.00004579 </v>
   <v>       0.00177467      -0.00074802      -0.00017807 </v>
   <v>      -0.00126359       0.00024296       0.00299430 </v>
   <v>      -0.00099997      -0.00225264       0.00003448 </v>
   <v>      -0.00162902      -0.00309295      -0.00106108 </v>
   <v>      -0.00323235       0.00031271      -0.00292836 </v>
   <v>      -0.00140714      -0.00251935      -0.00388495 </v>
   <v>       0.00127875      -0.00029698      -0.00119173 </v>
   <v>      -0.00338880       0.00076427      -0.00049390 </v>
   <v>      -0.00235972      -0.00013675      -0.00023430 </v>
   <v>       0.00042475       0.00067995      -0.00033640 </v>
   <v>      -0.00090929      -0.00454448      -0.00460355 </v>
   <v>       0.00398080       0.00020276      -0.00351709 </v>
   <v>       0.00347468      -0.00113244      -0.00530323 </v>
   <v>      -0.00124992      -0.00188098       0.00268476 </v>
   <v>       0.00000908      -0.00029075       0.00024569 </v>
   <v>       0.00045759       0.00043281      -0.00040247 </v>
   <v>       0.00219547      -0.00339560      -0.00034856 </v>
   <v>      -0.00003246      -0.00027826      -0.00321498 </v>
   <v>      -0.00002524       0.00076360      -0.00150834 </v>
   <v>      -0.00111503       0.00217692      -0.00091356 </v>
   <v>      -0.00044256       0.00068455       0.00223314 </v>
   <v>      -0.00027478       0.00363008       0.00076246 </v>
   <v>      -0.00033031       0.00150141      -0.00012479 </v>
   <v>      -0.00049300       0.00019161      -0.00057949 </v>
   <v>      -0.00233804      -0.00073206      -0.00131963 </v>
   <v>       0.00043133      -0.00139870      -0.00253269 </v>
   <v>      -0.00009892      -0.00307148       0.00019958 </v>
   <v>      -0.00090254       0.00154129      -0.00263920 </v>
   <v>       0.00502090       0.00161047      -0.00313253 </v>
   <v>      -0.00181460       0.00001573      -0.00139565 </v>
   <v>       0.00230877      -0.00272901       0.00255073 </v>
   <v>       0.00042043       0.00037565       0.00025805 </v>
   <v>      -0.00233936       0.00079003       0.00297448 </v>
   <v>      -0.00230435      -0.00795701      -0.00012712 </v>
   <v>       0.00405419      -0.00048903       0.00811347 </v>
   <v>       0.00257058       0.00638102      -0.00513375 </v>
   <v>      -0.00513029       0.00545480       0.00250170 </v>
   <v>       0.00277128       0.00484186       0.00042554 </v>
  </varray>
  <varray name="stress" >
   <v>      -0.00730021      -0.00015910      -0.01098861 </v>
   <v>      -0.00015910      -0.01089101       0.00024737 </v>
   <v>      -0.01098861       0.00024738      -0.13196891 </v>
  </varray>
  <energy>
   <i name="e_fr_energy">   -885.31333401 </i>
   <i name="e_wo_entrp">   -885.31333401 </i>
   <i name="e_0_energy">     -0.00000000 </i>
  </energy>
  <time name="totalsc"> 5624.03 5687.06</time>
  <eigenvalues>
   <array>
    <dimension dim="1">band</dimension>
    <dimension dim="2">kpoint</dimension>
    <dimension dim="3">spin</dimension>
    <field>eigene</field>
    <field>occ</field>
    <set>
     <set comment="spin 1">
      <set comment="kpoint 1">
       <r>  -26.5237    1.0000 </r>
       <r>  -26.5217    1.0000 </r>
       <r>  -26.5215    1.0000 </r>
       <r>  -25.8484    1.0000 </r>
       <r>  -25.8478    1.0000 </r>
       <r>  -25.8468    1.0000 </r>
       <r>  -24.5908    1.0000 </r>
       <r>  -24.5846    1.0000 </r>
       <r>  -24.1012    1.0000 </r>
       <r>  -24.0986    1.0000 </r>
       <r>  -24.0968    1.0000 </r>
       <r>  -23.5405    1.0000 </r>
       <r>  -23.5388    1.0000 </r>
       <r>  -23.5384    1.0000 </r>
       <r>  -21.7509    1.0000 </r>
       <r>  -21.7500    1.0000 </r>
       <r>  -21.7190    1.0000 </r>
       <r>  -21.7178    1.0000 </r>
       <r>  -21.4342    1.0000 </r>
       <r>  -21.3756    1.0000 </r>
       <r>  -20.6666    1.0000 </r>
       <r>  -20.6648    1.0000 </r>
       <r>  -20.6383    1.0000 </r>
       <r>  -20.4405    1.0000 </r>
       <r>  -20.4403    1.0000 </r>
       <r>  -20.4121    1.0000 </r>
       <r>  -20.4113    1.0000 </r>
       <r>  -20.1956    1.0000 </r>
       <r>  -20.1354    1.0000 </r>
       <r>  -19.5198    1.0000 </r>
       <r>  -19.5196    1.0000 </r>
       <r>  -19.1444    1.0000 </r>
       <r>  -18.9877    1.0000 </r>
       <r>  -18.9874    1.0000 </r>
       <r>  -18.7900    1.0000 </r>
       <r>  -18.7890    1.0000 </r>
       <r>  -18.7233    1.0000 </r>
       <r>  -18.7194    1.0000 </r>
       <r>  -18.6758    1.0000 </r>
       <r>  -18.6715    1.0000 </r>
       <r>  -18.2060    1.0000 </r>
       <r>  -18.2053    1.0000 </r>
       <r>  -18.0352    1.0000 </r>
       <r>  -17.5448    1.0000 </r>
       <r>  -17.5420    1.0000 </r>
       <r>  -17.5064    1.0000 </r>
       <r>  -17.3692    1.0000 </r>
       <r>  -16.7812    1.0000 </r>
       <r>  -16.7807    1.0000 </r>
       <r>  -16.2175    1.0000 </r>
       <r>  -16.1065    1.0000 </r>
       <r>  -16.1053    1.0000 </r>
       <r>  -15.9641    1.0000 </r>
       <r>  -15.7884    1.0000 </r>
       <r>  -15.7875    1.0000 </r>
       <r>  -15.6909    1.0000 </r>
       <r>  -15.6896    1.0000 </r>
       <r>  -15.4154    1.0000 </r>
       <r>  -15.3087    1.0000 </r>
       <r>  -15.1802    1.0000 </r>
       <r>  -15.1786    1.0000 </r>
       <r>  -15.1760    1.0000 </r>
       <r>  -15.1738    1.0000 </r>
       <r>  -15.0176    1.0000 </r>
       <r>  -14.9399    1.0000 </r>
       <r>  -14.7416    1.0000 </r>
       <r>  -14.7412    1.0000 </r>
       <r>  -14.7044    1.0000 </r>
       <r>  -14.7037    1.0000 </r>
       <r>  -14.2934    1.0000 </r>
       <r>  -14.2238    1.0000 </r>
       <r>  -13.5921    1.0000 </r>
       <r>  -13.5915    1.0000 </r>
       <r>  -13.5319    1.0000 </r>
       <r>  -13.5309    1.0000 </r>
       <r>  -13.5194    1.0000 </r>
       <r>  -13.3707    1.0000 </r>
       <r>  -13.3323    1.0000 </r>
       <r>  -13.3316    1.0000 </r>
       <r>  -13.0913    1.0000 </r>
       <r>  -13.0909    1.0000 </r>
       <r>  -12.8996    1.0000 </r>
       <r>  -12.8527    1.0000 </r>
       <r>  -12.8521    1.0000 </r>
       <r>  -12.5233    1.0000 </r>
       <r>  -12.2811    1.0000 </r>
       <r>  -12.2799    1.0000 </r>
       <r>  -12.1277    1.0000 </r>
       <r>  -12.0998    1.0000 </r>
       <r>  -12.0286    1.0000 </r>
       <r>  -12.0272    1.0000 </r>
       <r>  -11.8646    1.0000 </r>
       <r>  -11.8632    1.0000 </r>
       <r>  -11.7657    1.0000 </r>
       <r>  -11.5151    1.0000 </r>
       <r>  -11.4938    1.0000 </r>
       <r>  -11.4900    1.0000 </r>
       <r>  -11.4699    1.0000 </r>
       <r>  -11.2997    1.0000 </r>
       <r>  -11.2971    1.0000 </r>
       <r>  -11.2330    1.0000 </r>
       <r>  -11.2313    1.0000 </r>
       <r>  -11.1777    1.0000 </r>
       <r>  -11.1681    1.0000 </r>
       <r>  -11.1651    1.0000 </r>
       <r>  -11.0949    1.0000 </r>
       <r>  -11.0477    1.0000 </r>
       <r>  -11.0441    1.0000 </r>
       <r>  -10.9242    1.0000 </r>
       <r>  -10.7745    1.0000 </r>
       <r>  -10.7733    1.0000 </r>
       <r>  -10.6893    1.0000 </r>
       <r>  -10.5262    1.0000 </r>
       <r>  -10.5183    1.0000 </r>
       <r>  -10.5179    1.0000 </r>
       <r>  -10.5031    1.0000 </r>
       <r>  -10.4962    1.0000 </r>
       <r>  -10.4772    1.0000 </r>
       <r>  -10.4749    1.0000 </r>
       <r>  -10.4671    1.0000 </r>
       <r>  -10.4624    1.0000 </r>
       <r>  -10.4054    1.0000 </r>
       <r>  -10.4033    1.0000 </r>
       <r>  -10.3250    1.0000 </r>
       <r>  -10.2619    1.0000 </r>
       <r>  -10.2584    1.0000 </r>
       <r>  -10.1699    1.0000 </r>
       <r>  -10.1302    1.0000 </r>
       <r>  -10.1253    1.0000 </r>
       <r>  -10.1167    1.0000 </r>
       <r>  -10.0133    1.0000 </r>
       <r>  -10.0122    1.0000 </r>
       <r>   -9.8679    1.0000 </r>
       <r>   -9.8637    1.0000 </r>
       <r>   -9.8628    1.0000 </r>
       <r>   -9.6940    1.0000 </r>
       <r>   -9.6381    1.0000 </r>
       <r>   -9.5542    1.0000 </r>
       <r>   -9.5319    1.0000 </r>
       <r>   -9.5150    1.0000 </r>
       <r>   -9.5132    1.0000 </r>
       <r>   -9.4502    1.0000 </r>
       <r>   -9.4478    1.0000 </r>
       <r>   -9.4199    1.0000 </r>
       <r>   -9.4182    1.0000 </r>
       <r>   -9.3572    1.0000 </r>
       <r>   -9.3534    1.0000 </r>
       <r>   -9.1542    1.0000 </r>
       <r>   -9.0835    1.0000 </r>
       <r>   -9.0535    1.0000 </r>
       <r>   -9.0495    1.0000 </r>
       <r>   -8.9876    1.0000 </r>
       <r>   -8.9451    1.0000 </r>
       <r>   -8.9439    1.0000 </r>
       <r>   -8.8898    1.0000 </r>
       <r>   -8.8856    1.0000 </r>
       <r>   -8.6321    1.0000 </r>
       <r>   -8.6064    1.0000 </r>
       <r>   -8.4376    1.0000 </r>
       <r>   -8.4361    1.0000 </r>
       <r>   -8.4053    1.0000 </r>
       <r>   -8.4038    1.0000 </r>
       <r>   -8.1363    1.0000 </r>
       <r>   -7.9328    1.0000 </r>
       <r>   -7.9301    1.0000 </r>
       <r>   -7.8816    1.0000 </r>
       <r>   -7.4497    1.0000 </r>
       <r>   -7.4477    1.0000 </r>
       <r>   -7.3746    1.0000 </r>
       <r>   -7.3519    1.0000 </r>
       <r>   -7.3500    1.0000 </r>
       <r>   -7.2950    1.0000 </r>
       <r>   -7.2257    1.0000 </r>
       <r>   -6.9894    1.0000 </r>
       <r>   -6.9879    1.0000 </r>
       <r>   -6.7778    1.0000 </r>
       <r>   -6.7746    1.0000 </r>
       <r>   -6.7598    1.0000 </r>
       <r>   -6.7593    1.0000 </r>
       <r>   -6.7548    1.0000 </r>
       <r>   -6.6219    1.0000 </r>
       <r>   -6.6208    1.0000 </r>
       <r>   -6.5384    1.0000 </r>
       <r>   -6.5378    1.0000 </r>
       <r>   -6.4320    1.0000 </r>
       <r>   -6.4307    1.0000 </r>
       <r>   -6.3385    1.0000 </r>
       <r>   -6.2352    1.0000 </r>
       <r>   -6.2346    1.0000 </r>
       <r>   -6.2331    1.0000 </r>
       <r>   -5.8766    1.0000 </r>
       <r>   -5.8744    1.0000 </r>
       <r>   -5.7178    1.0000 </r>
       <r>   -5.6904    1.0000 </r>
       <r>   -5.6878    1.0000 </r>
       <r>   -5.5131    1.0000 </r>
       <r>   -5.5043    1.0000 </r>
       <r>   -5.5025    1.0000 </r>
       <r>   -4.8885    1.0000 </r>
       <r>   -4.7104    1.0000 </r>
       <r>   -4.0144    0.0000 </r>
       <r>   -4.0116    0.0000 </r>
       <r>   -3.9992    0.0000 </r>
       <r>   -2.8129    0.0000 </r>
       <r>   -2.8117    0.0000 </r>
       <r>   -2.6109    0.0000 </r>
       <r>   -2.2772    0.0000 </r>
       <r>   -2.2763    0.0000 </r>
       <r>   -2.2739    0.0000 </r>
       <r>   -1.9516    0.0000 </r>
       <r>   -1.9478    0.0000 </r>
       <r>   -1.8722    0.0000 </r>
       <r>   -1.8701    0.0000 </r>
       <r>   -1.6670    0.0000 </r>
       <r>   -1.6659    0.0000 </r>
       <r>   -1.3213    0.0000 </r>
       <r>   -1.3193    0.0000 </r>
       <r>   -1.3161    0.0000 </r>
       <r>   -1.2998    0.0000 </r>
       <r>   -1.2987    0.0000 </r>
       <r>   -1.2429    0.0000 </r>
       <r>   -0.9618    0.0000 </r>
       <r>   -0.9588    0.0000 </r>
       <r>   -0.5739    0.0000 </r>
       <r>   -0.5712    0.0000 </r>
       <r>   -0.5235    0.0000 </r>
       <r>   -0.4784    0.0000 </r>
       <r>   -0.4128    0.0000 </r>
       <r>   -0.2707    0.0000 </r>
       <r>   -0.2362    0.0000 </r>
       <r>   -0.2345    0.0000 </r>
       <r>   -0.0983    0.0000 </r>
       <r>   -0.0965    0.0000 </r>
       <r>   -0.0247    0.0000 </r>
       <r>    0.0342    0.0000 </r>
       <r>    0.1004    0.0000 </r>
       <r>    0.1415    0.0000 </r>
       <r>    0.1426    0.0000 </r>
       <r>    0.2256    0.0000 </r>
       <r>    0.2279    0.0000 </r>
       <r>    0.2709    0.0000 </r>
       <r>    0.2725    0.0000 </r>
       <r>    0.3429    0.0000 </r>
       <r>    0.3451    0.0000 </r>
       <r>    0.4782    0.0000 </r>
       <r>    0.4844    0.0000 </r>
       <r>    0.4978    0.0000 </r>
       <r>    0.5025    0.0000 </r>
       <r>    0.5652    0.0000 </r>
       <r>    0.5835    0.0000 </r>
       <r>    0.6118    0.0000 </r>
       <r>    0.6325    0.0000 </r>
       <r>    0.6391    0.0000 </r>
       <r>    0.6841    0.0000 </r>
       <r>    0.6883    0.0000 </r>
       <r>    0.7008    0.0000 </r>
       <r>    0.7064    0.0000 </r>
       <r>    0.7075    0.0000 </r>
       <r>    0.7282    0.0000 </r>
       <r>    0.7464    0.0000 </r>
       <r>    0.7491    0.0000 </r>
       <r>    0.7792    0.0000 </r>
       <r>    0.7836    0.0000 </r>
       <r>    0.8948    0.0000 </r>
       <r>    0.8990    0.0000 </r>
       <r>    0.9032    0.0000 </r>
       <r>    0.9123    0.0000 </r>
       <r>    0.9146    0.0000 </r>
       <r>    0.9806    0.0000 </r>
       <r>    0.9818    0.0000 </r>
       <r>    0.9974    0.0000 </r>
       <r>    0.9998    0.0000 </r>
      </set>
      <set comment="kpoint 2">
       <r>  -26.5237    1.0000 </r>
       <r>  -26.5217    1.0000 </r>
       <r>  -26.5215    1.0000 </r>
       <r>  -25.8484    1.0000 </r>
       <r>  -25.8478    1.0000 </r>
       <r>  -25.8468    1.0000 </r>
       <r>  -24.5908    1.0000 </r>
       <r>  -24.5846    1.0000 </r>
       <r>  -24.1012    1.0000 </r>
       <r>  -24.0986    1.0000 </r>
       <r>  -24.0968    1.0000 </r>
       <r>  -23.5405    1.0000 </r>
       <r>  -23.5388    1.0000 </r>
       <r>  -23.5384    1.0000 </r>
       <r>  -21.7509    1.0000 </r>
       <r>  -21.7499    1.0000 </r>
       <r>  -21.7191    1.0000 </r>
       <r>  -21.7177    1.0000 </r>
       <r>  -21.4341    1.0000 </r>
       <r>  -21.3757    1.0000 </r>
       <r>  -20.6665    1.0000 </r>
       <r>  -20.6648    1.0000 </r>
       <r>  -20.6383    1.0000 </r>
       <r>  -20.4405    1.0000 </r>
       <r>  -20.4402    1.0000 </r>
       <r>  -20.4122    1.0000 </r>
       <r>  -20.4113    1.0000 </r>
       <r>  -20.1955    1.0000 </r>
       <r>  -20.1355    1.0000 </r>
       <r>  -19.5197    1.0000 </r>
       <r>  -19.5193    1.0000 </r>
       <r>  -19.1461    1.0000 </r>
       <r>  -18.9876    1.0000 </r>
       <r>  -18.9859    1.0000 </r>
       <r>  -18.7901    1.0000 </r>
       <r>  -18.7890    1.0000 </r>
       <r>  -18.7233    1.0000 </r>
       <r>  -18.7194    1.0000 </r>
       <r>  -18.6756    1.0000 </r>
       <r>  -18.6714    1.0000 </r>
       <r>  -18.2084    1.0000 </r>
       <r>  -18.2055    1.0000 </r>
       <r>  -18.0325    1.0000 </r>
       <r>  -17.5449    1.0000 </r>
       <r>  -17.5420    1.0000 </r>
       <r>  -17.5064    1.0000 </r>
       <r>  -17.3701    1.0000 </r>
       <r>  -16.7808    1.0000 </r>
       <r>  -16.7802    1.0000 </r>
       <r>  -16.2195    1.0000 </r>
       <r>  -16.1055    1.0000 </r>
       <r>  -16.1047    1.0000 </r>
       <r>  -15.9642    1.0000 </r>
       <r>  -15.7886    1.0000 </r>
       <r>  -15.7881    1.0000 </r>
       <r>  -15.6903    1.0000 </r>
       <r>  -15.6889    1.0000 </r>
       <r>  -15.4153    1.0000 </r>
       <r>  -15.3089    1.0000 </r>
       <r>  -15.1871    1.0000 </r>
       <r>  -15.1838    1.0000 </r>
       <r>  -15.1710    1.0000 </r>
       <r>  -15.1667    1.0000 </r>
       <r>  -15.0175    1.0000 </r>
       <r>  -14.9401    1.0000 </r>
       <r>  -14.7420    1.0000 </r>
       <r>  -14.7418    1.0000 </r>
       <r>  -14.7042    1.0000 </r>
       <r>  -14.7030    1.0000 </r>
       <r>  -14.2933    1.0000 </r>
       <r>  -14.2239    1.0000 </r>
       <r>  -13.5921    1.0000 </r>
       <r>  -13.5915    1.0000 </r>
       <r>  -13.5325    1.0000 </r>
       <r>  -13.5310    1.0000 </r>
       <r>  -13.5187    1.0000 </r>
       <r>  -13.3716    1.0000 </r>
       <r>  -13.3323    1.0000 </r>
       <r>  -13.3305    1.0000 </r>
       <r>  -13.0916    1.0000 </r>
       <r>  -13.0911    1.0000 </r>
       <r>  -12.8995    1.0000 </r>
       <r>  -12.8527    1.0000 </r>
       <r>  -12.8521    1.0000 </r>
       <r>  -12.5230    1.0000 </r>
       <r>  -12.2817    1.0000 </r>
       <r>  -12.2800    1.0000 </r>
       <r>  -12.1272    1.0000 </r>
[...]
       <r>   -21.3320    24.4019    40.0000 </r>
       <r>   -21.2309     0.0000    40.0000 </r>
       <r>   -21.1298     0.0000    40.0000 </r>
       <r>   -21.0287     0.0000    40.0000 </r>
       <r>   -20.9277     0.0000    40.0000 </r>
       <r>   -20.8266     0.0000    40.0000 </r>
       <r>   -20.7255     0.0000    40.0000 </r>
       <r>   -20.6244    59.2159    45.9854 </r>
       <r>   -20.5233     0.0000    46.0000 </r>
       <r>   -20.4223    45.8221    50.6316 </r>
       <r>   -20.3212     0.0000    54.0000 </r>
       <r>   -20.2201     0.0008    54.0001 </r>
       <r>   -20.1190    39.5439    57.9971 </r>
       <r>   -20.0179     0.0000    58.0000 </r>
       <r>   -19.9169     0.0000    58.0000 </r>
       <r>   -19.8158     0.0000    58.0000 </r>
       <r>   -19.7147     0.0000    58.0000 </r>
       <r>   -19.6136     0.0000    58.0000 </r>
       <r>   -19.5126    19.3912    59.9600 </r>
       <r>   -19.4115    10.2578    61.6035 </r>
       <r>   -19.3104    11.0609    62.9847 </r>
       <r>   -19.2093     3.6293    63.5002 </r>
       <r>   -19.1082     3.9570    64.0000 </r>
       <r>   -19.0072     0.0484    64.0049 </r>
       <r>   -18.9061     5.5798    66.6307 </r>
       <r>   -18.8050    22.0294    68.9934 </r>
       <r>   -18.7039    39.2593    75.9683 </r>
       <r>   -18.6029    29.4471    78.9765 </r>
       <r>   -18.5018     8.5230    80.2282 </r>
       <r>   -18.4007     6.9665    81.1375 </r>
       <r>   -18.2996     2.9627    81.4995 </r>
       <r>   -18.1985    21.1197    83.7014 </r>
       <r>   -18.0975     0.0000    84.0000 </r>
       <r>   -17.9964     2.8857    84.2917 </r>
       <r>   -17.8953     2.7145    84.6411 </r>
       <r>   -17.7942     2.9770    85.0009 </r>
       <r>   -17.6932     8.1276    85.9550 </r>
       <r>   -17.5921     9.0631    87.0828 </r>
       <r>   -17.4910    48.2109    92.1397 </r>
       <r>   -17.3899     5.7985    93.6528 </r>
       <r>   -17.2888     0.0000    94.0000 </r>
       <r>   -17.1878     0.0000    94.0000 </r>
       <r>   -17.0867     0.0000    94.0000 </r>
       <r>   -16.9856     0.0000    94.0000 </r>
       <r>   -16.8845     0.0000    94.0000 </r>
       <r>   -16.7835     9.0940    94.9192 </r>
       <r>   -16.6824     4.3277    96.7375 </r>
       <r>   -16.5813     7.3110    97.5390 </r>
       <r>   -16.4802     6.2104    98.3278 </r>
       <r>   -16.3791     6.6269    99.1698 </r>
       <r>   -16.2781     2.9761    99.5675 </r>
       <r>   -16.1770     3.2977   100.0000 </r>
       <r>   -16.0759    19.6863   101.9898 </r>
       <r>   -15.9748    26.6066   105.1894 </r>
       <r>   -15.8738     5.7288   106.5791 </r>
       <r>   -15.7727    23.7656   109.4356 </r>
       <r>   -15.6716    18.7111   111.5580 </r>
       <r>   -15.5705    14.4607   113.5951 </r>
       <r>   -15.4694     0.0000   114.0000 </r>
       <r>   -15.3684    19.6452   115.9857 </r>
       <r>   -15.2673    19.5403   119.3419 </r>
       <r>   -15.1662    24.2106   122.3472 </r>
       <r>   -15.0651    20.4856   125.0374 </r>
       <r>   -14.9640    38.6698   129.2087 </r>
       <r>   -14.8630     2.9761   130.0010 </r>
       <r>   -14.7619    17.6090   131.9800 </r>
       <r>   -14.6608    38.0163   137.3760 </r>
       <r>   -14.5597     0.0000   138.0000 </r>
       <r>   -14.4587     0.0000   138.0000 </r>
       <r>   -14.3576     0.0000   138.0000 </r>
       <r>   -14.2565    19.4393   139.9649 </r>
       <r>   -14.1554     7.5839   142.0000 </r>
       <r>   -14.0543     0.0000   142.0000 </r>
       <r>   -13.9533     0.0000   142.0000 </r>
       <r>   -13.8522     0.0000   142.0000 </r>
       <r>   -13.7511     0.0000   142.0000 </r>
       <r>   -13.6500     0.0000   142.0000 </r>
       <r>   -13.5490    54.0111   147.4593 </r>
       <r>   -13.4479    22.4249   152.2667 </r>
       <r>   -13.3468     9.3676   154.0136 </r>
       <r>   -13.2457    14.3022   156.9462 </r>
       <r>   -13.1446    17.1479   159.1667 </r>
       <r>   -13.0436    26.0522   162.0000 </r>
       <r>   -12.9425     0.0000   162.0000 </r>
       <r>   -12.8414    49.8378   167.0375 </r>
       <r>   -12.7403     0.0000   168.0000 </r>
       <r>   -12.6393     0.0000   168.0000 </r>
       <r>   -12.5382     0.0333   168.0034 </r>
       <r>   -12.4371    12.4155   169.5550 </r>
       <r>   -12.3360    13.4172   171.2897 </r>
       <r>   -12.2349    25.0628   174.0000 </r>
       <r>   -12.1339     0.3812   174.0385 </r>
       <r>   -12.0328    37.6199   178.2359 </r>
       <r>   -11.9317    32.7892   183.1811 </r>
       <r>   -11.8306    20.4446   186.0000 </r>
       <r>   -11.7296     5.4297   186.5488 </r>
       <r>   -11.6285    14.4871   188.1977 </r>
       <r>   -11.5274    11.6208   189.7413 </r>
       <r>   -11.4263    59.2788   195.9918 </r>
       <r>   -11.3252     0.0013   196.0001 </r>
       <r>   -11.2242    78.0733   203.8916 </r>
       <r>   -11.1231    59.3602   210.0000 </r>
       <r>   -11.0220    59.3572   215.9997 </r>
       <r>   -10.9209     3.3827   216.3419 </r>
       <r>   -10.8199    20.5829   219.3806 </r>
       <r>   -10.7188    23.7437   222.0000 </r>
       <r>   -10.6177     6.4679   222.6538 </r>
       <r>   -10.5166    55.9022   228.4505 </r>
       <r>   -10.4155    98.3730   243.6768 </r>
       <r>   -10.3145    12.6710   247.2808 </r>
       <r>   -10.2134    29.3497   252.0000 </r>
       <r>   -10.1123    61.1867   258.1846 </r>
       <r>   -10.0112    40.9892   262.7765 </r>
       <r>    -9.9102     0.0000   264.0000 </r>
       <r>    -9.8091    59.3601   270.0000 </r>
       <r>    -9.7080     0.0490   270.0050 </r>
       <r>    -9.6069    35.8935   273.9948 </r>
       <r>    -9.5058    62.6881   280.3364 </r>
       <r>    -9.4048    76.0494   289.5204 </r>
       <r>    -9.3037    28.3600   294.0000 </r>
       <r>    -9.2026     0.0000   294.0000 </r>
       <r>    -9.1015    18.5052   295.8705 </r>
       <r>    -9.0004    54.6422   303.5231 </r>
       <r>    -8.8994    47.0099   308.7517 </r>
       <r>    -8.7983     0.0000   312.0000 </r>
       <r>    -8.6972     0.0000   312.0000 </r>
       <r>    -8.5961    39.1443   315.9566 </r>
       <r>    -8.4951     0.0000   316.0000 </r>
       <r>    -8.3940    76.6276   323.7454 </r>
       <r>    -8.2929     0.0000   324.0000 </r>
       <r>    -8.1918     0.0000   324.0000 </r>
       <r>    -8.0907    15.4430   325.5609 </r>
       <r>    -7.9897    12.7614   327.4566 </r>
       <r>    -7.8886    23.5891   330.0177 </r>
       <r>    -7.7875     4.8159   330.6868 </r>
       <r>    -7.6864     9.3015   331.7402 </r>
       <r>    -7.5854    10.3365   333.0448 </r>
       <r>    -7.4843     4.4156   333.6130 </r>
       <r>    -7.3832    22.3129   336.0220 </r>
       <r>    -7.2821    58.4295   342.4061 </r>
       <r>    -7.1810    31.6583   346.0000 </r>
       <r>    -7.0800     0.0000   346.0000 </r>
       <r>    -6.9789    20.9647   348.1191 </r>
       <r>    -6.8778     6.8504   349.1925 </r>
       <r>    -6.7767    30.3111   352.6305 </r>
       <r>    -6.6757    32.7364   361.3102 </r>
       <r>    -6.5746    25.3927   364.0000 </r>
       <r>    -6.4735    55.3937   369.5991 </r>
       <r>    -6.3724    22.4245   372.0000 </r>
       <r>    -6.2713     4.3503   372.4397 </r>
       <r>    -6.1703    62.0259   378.8361 </r>
       <r>    -6.0692     8.9124   379.8342 </r>
       <r>    -5.9681     9.8960   381.0670 </r>
       <r>    -5.8670    25.2601   383.7532 </r>
       <r>    -5.7660     0.0000   384.0000 </r>
       <r>    -5.6649    59.3486   389.9988 </r>
       <r>    -5.5638     0.0000   390.0000 </r>
       <r>    -5.4627    59.3601   396.0000 </r>
       <r>    -5.3616     0.0000   396.0000 </r>
       <r>    -5.2606     0.0000   396.0000 </r>
       <r>    -5.1595     0.0000   396.0000 </r>
       <r>    -5.0584     0.0000   396.0000 </r>
       <r>    -4.9573     0.0000   396.0000 </r>
       <r>    -4.8563     7.0528   396.7129 </r>
       <r>    -4.7552    20.5675   399.0456 </r>
       <r>    -4.6541     6.5950   400.0000 </r>
       <r>    -4.5530     0.0000   400.0000 </r>
       <r>    -4.4519     0.0000   400.0000 </r>
       <r>    -4.3509     0.0000   400.0000 </r>
       <r>    -4.2498     0.0000   400.0000 </r>
       <r>    -4.1487     0.0000   400.0000 </r>
       <r>    -4.0476     0.0000   400.0000 </r>
       <r>    -3.9465    59.3601   406.0000 </r>
       <r>    -3.8455     0.0000   406.0000 </r>
       <r>    -3.7444     0.0000   406.0000 </r>
       <r>    -3.6433     0.0000   406.0000 </r>
       <r>    -3.5422     0.0000   406.0000 </r>
       <r>    -3.4412     0.0000   406.0000 </r>
       <r>    -3.3401     0.0000   406.0000 </r>
       <r>    -3.2390     0.0000   406.0000 </r>
       <r>    -3.1379     0.0000   406.0000 </r>
       <r>    -3.0368     0.0000   406.0000 </r>
       <r>    -2.9358     0.0000   406.0000 </r>
       <r>    -2.8347     0.0168   406.0017 </r>
       <r>    -2.7336    37.2640   409.7683 </r>
       <r>    -2.6325    12.7915   411.4930 </r>
       <r>    -2.5315     1.3175   412.0000 </r>
       <r>    -2.4304     0.0000   412.0000 </r>
       <r>    -2.3293     0.0000   412.0000 </r>
       <r>    -2.2282    59.3601   418.0000 </r>
       <r>    -2.1271     0.0000   418.0000 </r>
       <r>    -2.0261     0.0000   418.0000 </r>
       <r>    -1.9250    24.7338   420.5000 </r>
       <r>    -1.8239    49.4368   425.6970 </r>
       <r>    -1.7228    11.7096   427.1836 </r>
       <r>    -1.6218    26.0523   430.0000 </r>
       <r>    -1.5207     0.0000   430.0000 </r>
       <r>    -1.4196     0.0000   430.0000 </r>
       <r>    -1.3185    25.3147   432.5588 </r>
       <r>    -1.2174    19.7862   442.0000 </r>
       <r>    -1.1164     0.0000   442.0000 </r>
       <r>    -1.0153     0.0000   442.0000 </r>
       <r>    -0.9142    25.2810   444.5554 </r>
       <r>    -0.8131     7.8144   445.4899 </r>
       <r>    -0.7121    10.2318   446.8009 </r>
       <r>    -0.6110     4.5978   447.5314 </r>
       <r>    -0.5099    36.6799   451.4076 </r>
       <r>    -0.4088     9.0023   454.1767 </r>
       <r>    -0.3077    17.8150   456.3007 </r>
       <r>    -0.2067    36.6566   460.9052 </r>
       <r>    -0.1056    20.4101   463.7298 </r>
       <r>    -0.0045    14.4425   467.1268 </r>
       <r>     0.0966    10.8239   470.1275 </r>
       <r>     0.1976    52.9436   476.4521 </r>
       <r>     0.2987    63.6083   483.9965 </r>
       <r>     0.3998    32.8611   487.3215 </r>
       <r>     0.5009    43.3356   492.3804 </r>
       <r>     0.6020    80.5894   501.6794 </r>
       <r>     0.7030    89.4732   513.0774 </r>
       <r>     0.8041    65.6250   522.7005 </r>
       <r>     0.9052    94.3372   533.8689 </r>
       <r>     1.0063    67.6397   542.5371 </r>
       <r>     1.1074     4.9464   544.0000 </r>
       <r>     1.2084     0.0000   544.0000 </r>
       <r>     1.3095     0.0000   544.0000 </r>
       <r>     1.4106     0.0000   544.0000 </r>
       <r>     1.5117     0.0000   544.0000 </r>
       <r>     1.6127     0.0000   544.0000 </r>
       <r>     1.7138     0.0000   544.0000 </r>
       <r>     1.8149     0.0000   544.0000 </r>
       <r>     1.9160     0.0000   544.0000 </r>
       <r>     2.0171     0.0000   544.0000 </r>
       <r>     2.1181     0.0000   544.0000 </r>
       <r>     2.2192     0.0000   544.0000 </r>
       <r>     2.3203     0.0000   544.0000 </r>
       <r>     2.4214     0.0000   544.0000 </r>
      </set>
     </set>
    </array>
   </total>
  </dos>
 </calculation>
 <structure name="finalpos" >
  <crystal>
   <varray name="basis" >
    <v>      31.99058879      -0.00204393       0.00000000 </v>
    <v>     -15.99697046      27.64347083       0.00000000 </v>
    <v>       0.00000000       0.00000000      20.00000000 </v>
   </varray>
   <i name="volume">  17685.96422731 </i>
   <varray name="rec_basis" >
    <v>       0.03126035       0.01809002       0.00000000 </v>
    <v>       0.00000231       0.03617625       0.00000000 </v>
    <v>       0.00000000       0.00000000       0.05000000 </v>
   </varray>
  </crystal>
  <varray name="positions" >
   <v>       0.45927688       0.53261743       0.52971637 </v>
   <v>       0.31742000       0.67463398       0.48799965 </v>
   <v>       0.46310752       0.95874003       0.52914000 </v>
   <v>       0.03376158       0.53639117       0.52992092 </v>
   <v>       0.65104429       0.34204958       0.48781750 </v>
   <v>       0.50826430       0.05774183       0.52942549 </v>
   <v>       0.93473612       0.48259495       0.53041252 </v>
   <v>       0.51286383       0.48736701       0.52885107 </v>
   <v>       0.34377768       0.64987980       0.48534034 </v>
   <v>       0.33078609       0.60951428       0.52644961 </v>
   <v>       0.35621540       0.58477089       0.52301638 </v>
   <v>       0.39494249       0.59918260       0.47815253 </v>
   <v>       0.40775061       0.63976937       0.43744940 </v>
   <v>       0.38283610       0.66498900       0.44106238 </v>
   <v>       0.47087408       0.52170946       0.47009680 </v>
   <v>       0.42118486       0.57234741       0.47313866 </v>
   <v>       0.43354893       0.56097387       0.41152230 </v>
   <v>       0.45800513       0.53496230       0.40925089 </v>
   <v>       0.46869504       0.52118028       0.34333102 </v>
   <v>       0.43509841       0.55652118       0.53057353 </v>
   <v>       0.34237779       0.72577045       0.48489871 </v>
   <v>       0.26640715       0.64822533       0.48528790 </v>
   <v>       0.32644423       0.74998711       0.44237251 </v>
   <v>       0.35192396       0.80019218       0.43848286 </v>
   <v>       0.39367879       0.82785304       0.47710758 </v>
   <v>       0.40902720       0.80329158       0.52006237 </v>
   <v>       0.38400628       0.75305560       0.52380681 </v>
   <v>       0.23908114       0.66316053       0.52295592 </v>
   <v>       0.18893461       0.63765512       0.51938284 </v>
   <v>       0.16442974       0.59676595       0.47795306 </v>
   <v>       0.19211657       0.58198897       0.44076924 </v>
   <v>       0.24224924       0.60704247       0.44441340 </v>
   <v>       0.42067593       0.88101057       0.47221568 </v>
   <v>       0.43005566       0.90505621       0.41092184 </v>
   <v>       0.45632824       0.95561564       0.40894014 </v>
   <v>       0.11135206       0.57030219       0.47316132 </v>
   <v>       0.08727883       0.55377999       0.41217609 </v>
   <v>       0.03680316       0.52933776       0.41021097 </v>
   <v>       0.43880596       0.91058270       0.52965782 </v>
   <v>       0.08184526       0.56039848       0.53034246 </v>
   <v>       0.47195483       0.98153178       0.46984085 </v>
   <v>       0.46790137       0.98045663       0.34321975 </v>
   <v>       0.01095666       0.52079779       0.47087611 </v>
   <v>       0.01198093       0.51390360       0.34466610 </v>
   <v>       0.62643273       0.29088443       0.48505450 </v>
   <v>       0.70216044       0.36831459       0.48513068 </v>
   <v>       0.62483002       0.36681869       0.48458703 </v>
   <v>       0.58377920       0.34978622       0.44357190 </v>
   <v>       0.55888894       0.37501499       0.43959543 </v>
   <v>       0.57368767       0.41761960       0.47661987 </v>
   <v>       0.61447940       0.43405917       0.51810565 </v>
   <v>       0.63985432       0.40930119       0.52195045 </v>
   <v>       0.64254483       0.26695284       0.44230507 </v>
   <v>       0.61751565       0.21672852       0.43858368 </v>
   <v>       0.57609702       0.18880070       0.47768193 </v>
   <v>       0.56067236       0.21309070       0.52103754 </v>
   <v>       0.58521096       0.26333199       0.52456421 </v>
   <v>       0.72643085       0.40743499       0.44089531 </v>
   <v>       0.77657639       0.43208877       0.43730254 </v>
   <v>       0.80402733       0.41895054       0.47800956 </v>
   <v>       0.77939002       0.38012885       0.52274223 </v>
   <v>       0.72921945       0.35495316       0.52612701 </v>
   <v>       0.54940419       0.13562068       0.47268720 </v>
   <v>       0.49856052       0.03509926       0.46995364 </v>
   <v>       0.51314640       0.06115365       0.40906429 </v>
   <v>       0.53926610       0.11171783       0.41120024 </v>
   <v>       0.50059862       0.03644569       0.34324128 </v>
   <v>       0.85711849       0.44492069       0.47326861 </v>
   <v>       0.95746772       0.49393635       0.47094864 </v>
   <v>       0.93154666       0.48108843       0.40992910 </v>
   <v>       0.88108009       0.45697492       0.41181968 </v>
   <v>       0.95625204       0.49161413       0.34421832 </v>
   <v>       0.54733137       0.44432920       0.47176878 </v>
   <v>       0.49783795       0.49519886       0.46975845 </v>
   <v>       0.50707858       0.47868109       0.40887786 </v>
   <v>       0.53145378       0.45256568       0.41071886 </v>
   <v>       0.49270482       0.48920044       0.34326109 </v>
   <v>       0.53228370       0.10591359       0.53011985 </v>
   <v>       0.88664623       0.45875885       0.53092310 </v>
   <v>       0.53690064       0.46332959       0.52914879 </v>
   <v>       0.30044141       0.59763184       0.56080108 </v>
   <v>       0.34534574       0.55320248       0.55483517 </v>
   <v>       0.39322512       0.69640914       0.40922007 </v>
   <v>       0.43791587       0.65184038       0.40267226 </v>
   <v>       0.42349761       0.57083724       0.36441422 </v>
   <v>       0.42653794       0.56468631       0.58019132 </v>
   <v>       0.33910903       0.81843511       0.40514965 </v>
   <v>       0.29413007       0.72911438       0.41213342 </v>
   <v>       0.39665510       0.73448474       0.55672334 </v>
   <v>       0.44154232       0.82385443       0.55015907 </v>
   <v>       0.25754698       0.69507973       0.55474104 </v>
   <v>       0.16839562       0.65014137       0.54842996 </v>
   <v>       0.17398587       0.55011913       0.40875128 </v>
   <v>       0.26310582       0.59504484       0.41525033 </v>
   <v>       0.41841454       0.88532493       0.36373409 </v>
   <v>       0.10692502       0.56049567       0.36512622 </v>
   <v>       0.43226835       0.89365423       0.57907533 </v>
   <v>       0.09879964       0.57227787       0.57951436 </v>
   <v>       0.63041476       0.19870992       0.40497747 </v>
   <v>       0.67460907       0.28807148       0.41169893 </v>
   <v>       0.57250273       0.28172383       0.55772056 </v>
   <v>       0.52845370       0.19229081       0.55158838 </v>
   <v>       0.57173329       0.31678282       0.41459915 </v>
   <v>       0.52711759       0.36127533       0.40748483 </v>
   <v>       0.70564005       0.41806545       0.40907472 </v>
   <v>       0.79491489       0.46229055       0.40254010 </v>
   <v>       0.79984034       0.36897622       0.55447042 </v>
   <v>       0.71050232       0.32451043       0.56035654 </v>
   <v>       0.67171277       0.42279388       0.55376408 </v>
   <v>       0.62697779       0.46722396       0.54698512 </v>
   <v>       0.55016573       0.13159131       0.36405150 </v>
   <v>       0.86133696       0.44694611       0.36457583 </v>
   <v>       0.53863434       0.44012841       0.36356302 </v>
   <v>       0.53943536       0.12275206       0.57964742 </v>
   <v>       0.86971836       0.45041996       0.58041124 </v>
   <v>       0.54829117       0.45771335       0.57836479 </v>
   <v>       0.45906732       0.53348706       0.29011877 </v>
   <v>       0.45330328       0.95884829       0.29003972 </v>
   <v>       0.03342997       0.51835339       0.29199329 </v>
   <v>       0.51445943       0.05815655       0.29001648 </v>
   <v>       0.93469819       0.48323330       0.29081213 </v>
   <v>       0.49934513       0.47428376       0.29012557 </v>
  </varray>
 </structure>
</modeling>
