<?xml version="1.0" encoding="ISO-8859-1"?>
<modeling>
 <generator>
  <i name="program" type="string">vasp </i>
  <i name="version" type="string">5.4.4.18Apr17-6-g9f103f2a35  </i>
  <i name="subversion" type="string">(build Jun 07 2020 16:50:00) complex            parallel </i>
  <i name="platform" type="string">LinuxIFC </i>
  <i name="date" type="string">2023 02 16 </i>
  <i name="time" type="string">19:58:12 </i>
 </generator>
 <incar>
  <i type="string" name="SYSTEM">Simulation for cell shape cell volume r</i>
  <i type="int" name="ISTART">     1</i>
  <i type="string" name="PREC">high</i>
  <i type="string" name="ALGO">48</i>
  <i type="int" name="ICHARG">    11</i>
  <i type="int" name="NELM">   200</i>
  <i type="int" name="IBRION">    -1</i>
  <i name="EDIFF">      0.00001000</i>
  <i name="EDIFFG">     -0.01000000</i>
  <i type="int" name="NSW">     0</i>
  <i type="int" name="ISIF">     2</i>
  <i name="ENCUT">    500.00000000</i>
  <i name="POTIM">      0.30000000</i>
  <i type="string" name="LREAL">A</i>
  <i type="int" name="ISMEAR">     0</i>
  <i name="SIGMA">      0.01000000</i>
  <i type="int" name="NWRITE">     0</i>
  <i type="logical" name="LWAVE"> F  </i>
  <i type="logical" name="LCHARG"> F  </i>
  <v type="int" name="KPOINT_BSE">    -1     0     0     0</v>
  <i type="int" name="NELM">   200</i>
  <i type="string" name="GGA">PE</i>
 </incar>
 <structure name="primitive_cell" >
  <crystal>
   <varray name="basis" >
    <v>      29.25250137       0.00000000       0.00000000 </v>
    <v>     -14.62625069      25.33340931       0.00000000 </v>
    <v>       0.00000000       0.00000000      20.00000000 </v>
   </varray>
   <i name="volume">  14821.31181506 </i>
   <varray name="rec_basis" >
    <v>       0.03418511       0.01973678       0.00000000 </v>
    <v>       0.00000000       0.03947357       0.00000000 </v>
    <v>       0.00000000       0.00000000       0.05000000 </v>
   </varray>
  </crystal>
  <varray name="positions" >
   <v>       0.02067246      -0.48966377      -0.32919378 </v>
   <v>       0.05061658      -0.47469171      -0.36871971 </v>
   <v>       0.07619426      -0.43178250      -0.36281453 </v>
   <v>       0.07619426      -0.49202324      -0.36281453 </v>
   <v>       0.02402048      -0.48798976      -0.43584080 </v>
   <v>      -0.02899557       0.48550221      -0.43673875 </v>
   <v>       0.05308127      -0.47345937      -0.49633534 </v>
   <v>      -0.05324965       0.47337517      -0.49654494 </v>
   <v>       0.11193859      -0.44403070      -0.49659633 </v>
   <v>       0.02887988      -0.48556006       0.44401942 </v>
   <v>      -0.02398164       0.48800918       0.44404357 </v>
   <v>       0.13997857      -0.47135559      -0.49692478 </v>
   <v>       0.13997857      -0.38866584      -0.49692478 </v>
   <v>       0.11839109       0.48556729      -0.49688927 </v>
   <v>       0.11839109      -0.36717620      -0.49688927 </v>
   <v>      -0.11203410       0.44398295      -0.49713950 </v>
   <v>      -0.11842845       0.36714919      -0.49708188 </v>
   <v>      -0.11842845      -0.48557764      -0.49708188 </v>
   <v>      -0.14003729       0.38861937      -0.49734497 </v>
   <v>      -0.14003729       0.47134334      -0.49734497 </v>
   <v>       0.19491533      -0.44393805      -0.49793378 </v>
   <v>       0.19491533      -0.36114662      -0.49793378 </v>
   <v>      -0.04366144       0.47816928       0.39540179 </v>
   <v>       0.22301848      -0.38849076      -0.49848380 </v>
   <v>       0.21689741      -0.31815629      -0.49846402 </v>
   <v>       0.21689741      -0.46494630      -0.49846402 </v>
   <v>      -0.19498955       0.36110336      -0.49737213 </v>
   <v>      -0.19498955       0.44390709      -0.49737213 </v>
   <v>      -0.22306598       0.38846701      -0.49725566 </v>
   <v>      -0.21700911       0.46488913      -0.49733463 </v>
   <v>      -0.21700911       0.31810176      -0.49733463 </v>
   <v>       0.28145351      -0.35927324      -0.49939724 </v>
   <v>       0.30620927      -0.30620927      -0.49951802 </v>
   <v>       0.30620927      -0.38758147      -0.49951802 </v>
   <v>      -0.28147265       0.35926368      -0.49697631 </v>
   <v>      -0.30621796       0.38756408      -0.49694007 </v>
   <v>      -0.30621796       0.30621796      -0.49694007 </v>
   <v>       0.31815629      -0.21689741      -0.49846402 </v>
   <v>       0.31815629      -0.46494630      -0.49846402 </v>
   <v>       0.35927324      -0.28145351      -0.49939724 </v>
   <v>       0.35927324      -0.35927324      -0.49939724 </v>
   <v>       0.38758147      -0.30620927      -0.49951802 </v>
   <v>      -0.31810176       0.46488913      -0.49733463 </v>
   <v>      -0.31810176       0.21700911      -0.49733463 </v>
   <v>       0.36114662      -0.44393805      -0.49793378 </v>
   <v>       0.36114662      -0.19491533      -0.49793378 </v>
   <v>       0.38849076      -0.22301848      -0.49848380 </v>
   <v>       0.38849076      -0.38849076      -0.49848380 </v>
   <v>      -0.35926368       0.28147265      -0.49697631 </v>
   <v>      -0.35926368       0.35926368      -0.49697631 </v>
   <v>      -0.36110336       0.19498955      -0.49737213 </v>
   <v>      -0.36110336       0.44390709      -0.49737213 </v>
   <v>      -0.38756408       0.30621796      -0.49694007 </v>
   <v>       0.38866584      -0.47135559      -0.49692478 </v>
   <v>       0.38866584      -0.13997857      -0.49692478 </v>
   <v>       0.36717620       0.48556729      -0.49688927 </v>
   <v>       0.36717620      -0.11839109      -0.49688927 </v>
   <v>      -0.38846701       0.38846701      -0.49725566 </v>
   <v>      -0.38846701       0.22306598      -0.49725566 </v>
   <v>       0.44393805      -0.36114662      -0.49793378 </v>
   <v>       0.44393805      -0.19491533      -0.49793378 </v>
   <v>       0.46494630      -0.21689741      -0.49846402 </v>
   <v>       0.46494630      -0.31815629      -0.49846402 </v>
   <v>      -0.36714919      -0.48557764      -0.49708188 </v>
   <v>      -0.36714919       0.11842845      -0.49708188 </v>
   <v>      -0.38861937       0.14003729      -0.49734497 </v>
   <v>      -0.38861937       0.47134334      -0.49734497 </v>
   <v>       0.43178250      -0.07619426      -0.36281453 </v>
   <v>       0.43178250      -0.49202324      -0.36281453 </v>
   <v>       0.44403070      -0.11193859      -0.49659633 </v>
   <v>       0.44403070      -0.44403070      -0.49659633 </v>
   <v>       0.47135559      -0.38866584      -0.49692478 </v>
   <v>       0.47135559      -0.13997857      -0.49692478 </v>
   <v>      -0.44390709       0.19498955      -0.49737213 </v>
   <v>      -0.44390709       0.36110336      -0.49737213 </v>
   <v>      -0.46488913       0.31810176      -0.49733463 </v>
   <v>      -0.46488913       0.21700911      -0.49733463 </v>
   <v>       0.49202324      -0.07619426      -0.36281453 </v>
   <v>       0.49202324      -0.43178250      -0.36281453 </v>
   <v>       0.47469171      -0.05061658      -0.36871971 </v>
   <v>       0.47469171      -0.47469171      -0.36871971 </v>
   <v>      -0.44398295       0.11203410      -0.49713950 </v>
   <v>      -0.44398295       0.44398295      -0.49713950 </v>
   <v>      -0.47134334       0.14003729      -0.49734497 </v>
   <v>      -0.47134334       0.38861937      -0.49734497 </v>
   <v>       0.47345937      -0.05308127      -0.49633534 </v>
   <v>       0.47345937      -0.47345937      -0.49633534 </v>
   <v>      -0.48556729      -0.36717620      -0.49688927 </v>
   <v>      -0.48556729      -0.11839109      -0.49688927 </v>
   <v>       0.48966377      -0.02067246      -0.32919378 </v>
   <v>       0.48966377      -0.48966377      -0.32919378 </v>
   <v>       0.48798976      -0.02402048      -0.43584080 </v>
   <v>       0.48798976      -0.48798976      -0.43584080 </v>
   <v>       0.48556006      -0.02887988       0.44401942 </v>
   <v>       0.48556006      -0.48556006       0.44401942 </v>
   <v>      -0.47337517       0.05324965      -0.49654494 </v>
   <v>      -0.47337517       0.47337517      -0.49654494 </v>
   <v>       0.48557764       0.11842845      -0.49708188 </v>
   <v>       0.48557764       0.36714919      -0.49708188 </v>
   <v>      -0.48550221       0.02899557      -0.43673875 </v>
   <v>      -0.48550221       0.48550221      -0.43673875 </v>
   <v>      -0.47816928       0.04366144       0.39540179 </v>
   <v>      -0.47816928       0.47816928       0.39540179 </v>
   <v>      -0.48800918       0.48800918       0.44404357 </v>
   <v>      -0.48800918       0.02398164       0.44404357 </v>
  </varray>
 </structure>
 <varray name="primitive_index" >
  <v type="int" >        1 </v>
  <v type="int" >       51 </v>
  <v type="int" >       32 </v>
  <v type="int" >       33 </v>
  <v type="int" >       49 </v>
  <v type="int" >       46 </v>
  <v type="int" >       50 </v>
  <v type="int" >      104 </v>
  <v type="int" >       70 </v>
  <v type="int" >       37 </v>
  <v type="int" >      105 </v>
  <v type="int" >       71 </v>
  <v type="int" >       69 </v>
  <v type="int" >        9 </v>
  <v type="int" >        7 </v>
  <v type="int" >       91 </v>
  <v type="int" >       19 </v>
  <v type="int" >       21 </v>
  <v type="int" >       90 </v>
  <v type="int" >       92 </v>
  <v type="int" >       72 </v>
  <v type="int" >       68 </v>
  <v type="int" >       36 </v>
  <v type="int" >       67 </v>
  <v type="int" >        6 </v>
  <v type="int" >        8 </v>
  <v type="int" >       89 </v>
  <v type="int" >       93 </v>
  <v type="int" >       88 </v>
  <v type="int" >       20 </v>
  <v type="int" >       18 </v>
  <v type="int" >       54 </v>
  <v type="int" >       40 </v>
  <v type="int" >       39 </v>
  <v type="int" >       75 </v>
  <v type="int" >       42 </v>
  <v type="int" >       43 </v>
  <v type="int" >        5 </v>
  <v type="int" >       10 </v>
  <v type="int" >       52 </v>
  <v type="int" >       53 </v>
  <v type="int" >       38 </v>
  <v type="int" >       22 </v>
  <v type="int" >       17 </v>
  <v type="int" >       60 </v>
  <v type="int" >       66 </v>
  <v type="int" >       61 </v>
  <v type="int" >       55 </v>
  <v type="int" >       73 </v>
  <v type="int" >       74 </v>
  <v type="int" >       87 </v>
  <v type="int" >       81 </v>
  <v type="int" >       41 </v>
  <v type="int" >       59 </v>
  <v type="int" >       65 </v>
  <v type="int" >       11 </v>
  <v type="int" >        4 </v>
  <v type="int" >       76 </v>
  <v type="int" >       82 </v>
  <v type="int" >       56 </v>
  <v type="int" >       62 </v>
  <v type="int" >        3 </v>
  <v type="int" >       13 </v>
  <v type="int" >       23 </v>
  <v type="int" >       16 </v>
  <v type="int" >       86 </v>
  <v type="int" >       80 </v>
  <v type="int" >       31 </v>
  <v type="int" >       27 </v>
  <v type="int" >       64 </v>
  <v type="int" >       58 </v>
  <v type="int" >       57 </v>
  <v type="int" >       63 </v>
  <v type="int" >       83 </v>
  <v type="int" >       77 </v>
  <v type="int" >       25 </v>
  <v type="int" >       15 </v>
  <v type="int" >       30 </v>
  <v type="int" >       28 </v>
  <v type="int" >       99 </v>
  <v type="int" >       96 </v>
  <v type="int" >       85 </v>
  <v type="int" >       79 </v>
  <v type="int" >       84 </v>
  <v type="int" >       78 </v>
  <v type="int" >       98 </v>
  <v type="int" >       95 </v>
  <v type="int" >       12 </v>
  <v type="int" >        2 </v>
  <v type="int" >       29 </v>
  <v type="int" >       26 </v>
  <v type="int" >       97 </v>
  <v type="int" >       94 </v>
  <v type="int" >       48 </v>
  <v type="int" >       47 </v>
  <v type="int" >      102 </v>
  <v type="int" >      100 </v>
  <v type="int" >       14 </v>
  <v type="int" >       24 </v>
  <v type="int" >       45 </v>
  <v type="int" >       44 </v>
  <v type="int" >       35 </v>
  <v type="int" >       34 </v>
  <v type="int" >      101 </v>
  <v type="int" >      103 </v>
 </varray>
 <kpoints>
  <generation param="listgenerated">
   <i name="divisions" type="int">      20 </i>
   <v>       0.00000000       0.00000000       0.00000000 </v>
   <v>       0.50000000       0.00000000       0.00000000 </v>
   <v>       0.33333333       0.33333333       0.00000000 </v>
   <v>       0.00000000       0.00000000       0.00000000 </v>
  </generation>
  <varray name="kpointlist" >
   <v>       0.00000000       0.00000000       0.00000000 </v>
   <v>       0.02631579       0.00000000       0.00000000 </v>
   <v>       0.05263158       0.00000000       0.00000000 </v>
   <v>       0.07894737       0.00000000       0.00000000 </v>
   <v>       0.10526316       0.00000000       0.00000000 </v>
   <v>       0.13157895       0.00000000       0.00000000 </v>
   <v>       0.15789474       0.00000000       0.00000000 </v>
   <v>       0.18421053       0.00000000       0.00000000 </v>
   <v>       0.21052632       0.00000000       0.00000000 </v>
   <v>       0.23684211       0.00000000       0.00000000 </v>
   <v>       0.26315789       0.00000000       0.00000000 </v>
   <v>       0.28947368       0.00000000       0.00000000 </v>
   <v>       0.31578947       0.00000000       0.00000000 </v>
   <v>       0.34210526       0.00000000       0.00000000 </v>
   <v>       0.36842105       0.00000000       0.00000000 </v>
   <v>       0.39473684       0.00000000       0.00000000 </v>
   <v>       0.42105263       0.00000000       0.00000000 </v>
   <v>       0.44736842       0.00000000       0.00000000 </v>
   <v>       0.47368421       0.00000000       0.00000000 </v>
   <v>       0.50000000       0.00000000       0.00000000 </v>
   <v>       0.50000000       0.00000000       0.00000000 </v>
   <v>       0.49122807       0.01754386       0.00000000 </v>
   <v>       0.48245614       0.03508772       0.00000000 </v>
   <v>       0.47368421       0.05263158       0.00000000 </v>
   <v>       0.46491228       0.07017544       0.00000000 </v>
   <v>       0.45614035       0.08771930       0.00000000 </v>
   <v>       0.44736842       0.10526316       0.00000000 </v>
   <v>       0.43859649       0.12280702       0.00000000 </v>
   <v>       0.42982456       0.14035088       0.00000000 </v>
   <v>       0.42105263       0.15789474       0.00000000 </v>
   <v>       0.41228070       0.17543860       0.00000000 </v>
   <v>       0.40350877       0.19298246       0.00000000 </v>
   <v>       0.39473684       0.21052632       0.00000000 </v>
   <v>       0.38596491       0.22807018       0.00000000 </v>
   <v>       0.37719298       0.24561404       0.00000000 </v>
   <v>       0.36842105       0.26315789       0.00000000 </v>
   <v>       0.35964912       0.28070175       0.00000000 </v>
   <v>       0.35087719       0.29824561       0.00000000 </v>
   <v>       0.34210526       0.31578947       0.00000000 </v>
   <v>       0.33333333       0.33333333       0.00000000 </v>
   <v>       0.33333333       0.33333333       0.00000000 </v>
   <v>       0.31578947       0.31578947       0.00000000 </v>
   <v>       0.29824561       0.29824561       0.00000000 </v>
   <v>       0.28070175       0.28070175       0.00000000 </v>
   <v>       0.26315789       0.26315789       0.00000000 </v>
   <v>       0.24561404       0.24561404       0.00000000 </v>
   <v>       0.22807018       0.22807018       0.00000000 </v>
   <v>       0.21052632       0.21052632       0.00000000 </v>
   <v>       0.19298246       0.19298246       0.00000000 </v>
   <v>       0.17543860       0.17543860       0.00000000 </v>
   <v>       0.15789474       0.15789474       0.00000000 </v>
   <v>       0.14035088       0.14035088       0.00000000 </v>
   <v>       0.12280702       0.12280702       0.00000000 </v>
   <v>       0.10526316       0.10526316       0.00000000 </v>
   <v>       0.08771930       0.08771930       0.00000000 </v>
   <v>       0.07017544       0.07017544       0.00000000 </v>
   <v>       0.05263158       0.05263158       0.00000000 </v>
   <v>       0.03508772       0.03508772       0.00000000 </v>
   <v>       0.01754386       0.01754386       0.00000000 </v>
   <v>       0.00000000       0.00000000       0.00000000 </v>
  </varray>
  <varray name="weights" >
   <v>       0.01666667 </v>
   <v>       0.01666667 </v>
   <v>       0.01666667 </v>
   <v>       0.01666667 </v>
   <v>       0.01666667 </v>
   <v>       0.01666667 </v>
   <v>       0.01666667 </v>
   <v>       0.01666667 </v>
   <v>       0.01666667 </v>
   <v>       0.01666667 </v>
   <v>       0.01666667 </v>
   <v>       0.01666667 </v>
   <v>       0.01666667 </v>
   <v>       0.01666667 </v>
   <v>       0.01666667 </v>
   <v>       0.01666667 </v>
   <v>       0.01666667 </v>
   <v>       0.01666667 </v>
   <v>       0.01666667 </v>
   <v>       0.01666667 </v>
   <v>       0.01666667 </v>
   <v>       0.01666667 </v>
   <v>       0.01666667 </v>
   <v>       0.01666667 </v>
   <v>       0.01666667 </v>
   <v>       0.01666667 </v>
   <v>       0.01666667 </v>
   <v>       0.01666667 </v>
   <v>       0.01666667 </v>
   <v>       0.01666667 </v>
   <v>       0.01666667 </v>
   <v>       0.01666667 </v>
   <v>       0.01666667 </v>
   <v>       0.01666667 </v>
   <v>       0.01666667 </v>
   <v>       0.01666667 </v>
   <v>       0.01666667 </v>
   <v>       0.01666667 </v>
   <v>       0.01666667 </v>
   <v>       0.01666667 </v>
   <v>       0.01666667 </v>
   <v>       0.01666667 </v>
   <v>       0.01666667 </v>
   <v>       0.01666667 </v>
   <v>       0.01666667 </v>
   <v>       0.01666667 </v>
   <v>       0.01666667 </v>
   <v>       0.01666667 </v>
   <v>       0.01666667 </v>
   <v>       0.01666667 </v>
   <v>       0.01666667 </v>
   <v>       0.01666667 </v>
   <v>       0.01666667 </v>
   <v>       0.01666667 </v>
   <v>       0.01666667 </v>
   <v>       0.01666667 </v>
   <v>       0.01666667 </v>
   <v>       0.01666667 </v>
   <v>       0.01666667 </v>
   <v>       0.01666667 </v>
  </varray>
 </kpoints>
 <parameters>
  <separator name="general" >
   <i type="string" name="SYSTEM">Simulation for cell shape cell volume r</i>
   <i type="logical" name="LCOMPAT"> F  </i>
  </separator>
  <separator name="electronic" >
   <i type="string" name="PREC">high</i>
   <i name="ENMAX">    500.00000000</i>
   <i name="ENAUG">    644.87300000</i>
   <i name="EDIFF">      0.00001000</i>
   <i type="int" name="IALGO">    38</i>
   <i type="int" name="IWAVPR">    10</i>
   <i type="int" name="NBANDS">   224</i>
   <i name="NELECT">    324.00000000</i>
   <i type="int" name="TURBO">     0</i>
   <i type="int" name="IRESTART">     0</i>
   <i type="int" name="NREBOOT">     0</i>
   <i type="int" name="NMIN">     0</i>
   <i name="EREF">      0.00000000</i>
   <separator name="electronic smearing" >
    <i type="int" name="ISMEAR">     0</i>
    <i name="SIGMA">      0.01000000</i>
    <i name="KSPACING">      0.50000000</i>
    <i type="logical" name="KGAMMA"> T  </i>
   </separator>
   <separator name="electronic projectors" >
    <i type="logical" name="LREAL"> T  </i>
    <v name="ROPT">     -0.00040000     -0.00040000     -0.00040000</v>
    <i type="int" name="LMAXPAW">  -100</i>
    <i type="int" name="LMAXMIX">     2</i>
    <i type="logical" name="NLSPLINE"> F  </i>
   </separator>
   <separator name="electronic startup" >
    <i type="int" name="ISTART">     1</i>
    <i type="int" name="ICHARG">    11</i>
    <i type="int" name="INIWAV">     1</i>
   </separator>
   <separator name="electronic spin" >
    <i type="int" name="ISPIN">     1</i>
    <i type="logical" name="LNONCOLLINEAR"> F  </i>
    <v name="MAGMOM">      1.00000000      1.00000000      1.00000000      1.00000000      1.00000000      1.00000000      1.00000000      1.00000000      1.00000000      1.00000000      1.00000000      1.00000000      1.00000000      1.00000000      1.00000000      1.00000000      1.00000000      1.00000000      1.00000000      1.00000000
      1.00000000      1.00000000      1.00000000      1.00000000      1.00000000      1.00000000      1.00000000      1.00000000      1.00000000      1.00000000      1.00000000      1.00000000      1.00000000      1.00000000      1.00000000      1.00000000      1.00000000      1.00000000      1.00000000      1.00000000
      1.00000000      1.00000000      1.00000000      1.00000000      1.00000000      1.00000000      1.00000000      1.00000000      1.00000000      1.00000000      1.00000000      1.00000000      1.00000000      1.00000000      1.00000000      1.00000000      1.00000000      1.00000000      1.00000000      1.00000000
      1.00000000      1.00000000      1.00000000      1.00000000      1.00000000      1.00000000      1.00000000      1.00000000      1.00000000      1.00000000      1.00000000      1.00000000      1.00000000      1.00000000      1.00000000      1.00000000      1.00000000      1.00000000      1.00000000      1.00000000
      1.00000000      1.00000000      1.00000000      1.00000000      1.00000000      1.00000000      1.00000000      1.00000000      1.00000000      1.00000000      1.00000000      1.00000000      1.00000000      1.00000000      1.00000000      1.00000000      1.00000000      1.00000000      1.00000000      1.00000000
      1.00000000      1.00000000      1.00000000      1.00000000      1.00000000</v>
    <i name="NUPDOWN">     -1.00000000</i>
    <i type="logical" name="LSORBIT"> F  </i>
    <v name="SAXIS">      0.00000000      0.00000000      1.00000000</v>
    <i type="logical" name="LSPIRAL"> F  </i>
    <v name="QSPIRAL">      0.00000000      0.00000000      0.00000000</v>
    <i type="logical" name="LZEROZ"> F  </i>
   </separator>
   <separator name="electronic exchange-correlation" >
    <i type="logical" name="LASPH"> F  </i>
    <i type="logical" name="LMETAGGA"> F  </i>
   </separator>
   <separator name="electronic convergence" >
    <i type="int" name="NELM">   200</i>
    <i type="int" name="NELMDL">     0</i>
    <i type="int" name="NELMIN">     2</i>
    <i name="ENINI">    500.00000000</i>
    <separator name="electronic convergence detail" >
     <i type="logical" name="LDIAG"> T  </i>
     <i type="logical" name="LSUBROT"> F  </i>
     <i name="WEIMIN">      0.00000000</i>
     <i name="EBREAK">      0.00000001</i>
     <i name="DEPER">      0.30000000</i>
     <i type="int" name="NRMM">     4</i>
     <i name="TIME">      0.40000000</i>
    </separator>
   </separator>
   <separator name="electronic mixer" >
    <i name="AMIX">      0.40000000</i>
    <i name="BMIX">      1.00000000</i>
    <i name="AMIN">      0.10000000</i>
    <i name="AMIX_MAG">      1.60000000</i>
    <i name="BMIX_MAG">      1.00000000</i>
    <separator name="electronic mixer details" >
     <i type="int" name="IMIX">     4</i>
     <i type="logical" name="MIXFIRST"> F  </i>
     <i type="int" name="MAXMIX">   -45</i>
     <i name="WC">    100.00000000</i>
     <i type="int" name="INIMIX">     1</i>
     <i type="int" name="MIXPRE">     1</i>
     <i type="int" name="MREMOVE">     5</i>
    </separator>
   </separator>
   <separator name="electronic dipolcorrection" >
    <i type="logical" name="LDIPOL"> F  </i>
    <i type="logical" name="LMONO"> F  </i>
    <i type="int" name="IDIPOL">     0</i>
    <i name="EPSILON">      1.00000000</i>
    <v name="DIPOL">   -100.00000000   -100.00000000   -100.00000000</v>
    <i name="EFIELD">      0.00000000</i>
   </separator>
  </separator>
  <separator name="grids" >
   <i type="int" name="NGX">   216</i>
   <i type="int" name="NGY">   216</i>
   <i type="int" name="NGZ">   150</i>
   <i type="int" name="NGXF">   324</i>
   <i type="int" name="NGYF">   324</i>
   <i type="int" name="NGZF">   224</i>
   <i type="logical" name="ADDGRID"> F  </i>
  </separator>
  <separator name="ionic" >
   <i type="int" name="NSW">     0</i>
   <i type="int" name="IBRION">    -1</i>
   <i type="int" name="MDALGO">     0</i>
   <i type="int" name="ISIF">     2</i>
   <i name="PSTRESS">      0.00000000</i>
   <i name="EDIFFG">     -0.01000000</i>
   <i type="int" name="NFREE">     0</i>
   <i name="POTIM">      0.30000000</i>
   <i name="SMASS">     -3.00000000</i>
   <i name="SCALEE">      1.00000000</i>
  </separator>
  <separator name="ionic md" >
   <i name="TEBEG">      0.00010000</i>
   <i name="TEEND">      0.00010000</i>
   <i type="int" name="NBLOCK">     1</i>
   <i type="int" name="KBLOCK">     1</i>
   <i type="int" name="NPACO">   256</i>
   <i name="APACO">     16.00000000</i>
  </separator>
  <separator name="symmetry" >
   <i type="int" name="ISYM">     2</i>
   <i name="SYMPREC">      0.00001000</i>
  </separator>
  <separator name="dos" >
   <i type="int" name="LORBIT">     0</i>
   <v name="RWIGS">     -1.00000000     -1.00000000     -1.00000000</v>
   <i type="int" name="NEDOS">   301</i>
   <i name="EMIN">     10.00000000</i>
   <i name="EMAX">    -10.00000000</i>
   <i name="EFERMI">      0.00000000</i>
  </separator>
  <separator name="writing" >
   <i type="int" name="NWRITE">     0</i>
   <i type="logical" name="LWAVE"> F  </i>
   <i type="logical" name="LDOWNSAMPLE"> F  </i>
   <i type="logical" name="LCHARG"> F  </i>
   <i type="logical" name="LPARD"> F  </i>
   <i type="logical" name="LVTOT"> F  </i>
   <i type="logical" name="LVHAR"> F  </i>
   <i type="logical" name="LELF"> F  </i>
   <i type="logical" name="LOPTICS"> F  </i>
   <v name="STM">      0.00000000      0.00000000      0.00000000      0.00000000      0.00000000      0.00000000      0.00000000</v>
  </separator>
  <separator name="performance" >
   <i type="int" name="NPAR">    16</i>
   <i type="int" name="NSIM">     4</i>
   <i type="int" name="NBLK">    -1</i>
   <i type="logical" name="LPLANE"> T  </i>
   <i type="logical" name="LSCALAPACK"> T  </i>
   <i type="logical" name="LSCAAWARE"> F  </i>
   <i type="logical" name="LSCALU"> F  </i>
   <i type="logical" name="LASYNC"> F  </i>
   <i type="logical" name="LORBITALREAL"> F  </i>
  </separator>
  <separator name="miscellaneous" >
   <i type="int" name="IDIOT">     3</i>
   <i type="int" name="ISPECIAL">     0</i>
   <i type="logical" name="LMUSIC"> F  </i>
   <v name="POMASS">      1.00000000     14.00100000     12.01100000</v>
   <v name="DARWINR">      0.00000000      0.00000000      0.00000000</v>
   <v name="DARWINV">      1.00000000      1.00000000      1.00000000</v>
   <i type="logical" name="LCORR"> T  </i>
  </separator>
  <i type="logical" name="GGA_COMPAT"> T  </i>
  <i type="logical" name="LBERRY"> F  </i>
  <i type="int" name="ICORELEVEL">     0</i>
  <i type="logical" name="LDAU"> F  </i>
  <i type="int" name="I_CONSTRAINED_M">     0</i>
  <separator name="electronic exchange-correlation" >
   <i type="string" name="GGA">PE</i>
   <i type="int" name="VOSKOWN">     0</i>
   <i type="logical" name="LHFCALC"> F  </i>
   <i type="string" name="PRECFOCK"></i>
   <i type="logical" name="LSYMGRAD"> F  </i>
   <i type="logical" name="LHFONE"> F  </i>
   <i type="logical" name="LRHFCALC"> F  </i>
   <i type="logical" name="LTHOMAS"> F  </i>
   <i type="logical" name="LMODELHF"> F  </i>
   <i name="ENCUT4O">     -1.00000000</i>
   <i type="int" name="EXXOEP">     0</i>
   <i type="int" name="FOURORBIT">     0</i>
   <i name="AEXX">      0.00000000</i>
   <i name="HFALPHA">      0.00000000</i>
   <i name="MCALPHA">      0.00000000</i>
   <i name="ALDAX">      1.00000000</i>
   <i name="AGGAX">      1.00000000</i>
   <i name="ALDAC">      1.00000000</i>
   <i name="AGGAC">      1.00000000</i>
   <i type="int" name="NKREDX">     1</i>
   <i type="int" name="NKREDY">     1</i>
   <i type="int" name="NKREDZ">     1</i>
   <i type="logical" name="SHIFTRED"> F  </i>
   <i type="logical" name="ODDONLY"> F  </i>
   <i type="logical" name="EVENONLY"> F  </i>
   <i type="int" name="LMAXFOCK">     0</i>
   <i type="int" name="NMAXFOCKAE">     0</i>
   <i type="logical" name="LFOCKAEDFT"> F  </i>
   <i name="HFSCREEN">      0.00000000</i>
   <i name="HFSCREENC">      0.00000000</i>
   <i type="int" name="NBANDSGWLOW">     0</i>
  </separator>
  <separator name="vdW DFT" >
   <i type="logical" name="LUSE_VDW"> F  </i>
   <i name="Zab_VDW">     -0.84910000</i>
   <i name="PARAM1">      0.12340000</i>
   <i name="PARAM2">      1.00000000</i>
   <i name="PARAM3">      0.00000000</i>
  </separator>
  <separator name="model GW" >
   <i type="int" name="MODEL_GW">     0</i>
   <i name="MODEL_EPS0">     84.69321037</i>
   <i name="MODEL_ALPHA">      1.00000000</i>
  </separator>
  <separator name="linear response parameters" >
   <i type="logical" name="LEPSILON"> F  </i>
   <i type="logical" name="LRPA"> F  </i>
   <i type="logical" name="LNABLA"> F  </i>
   <i type="logical" name="LVEL"> F  </i>
   <i type="int" name="KINTER">     0</i>
   <i name="CSHIFT">      0.10000000</i>
   <i name="OMEGAMAX">     -1.00000000</i>
   <i name="DEG_THRESHOLD">      0.00200000</i>
   <i name="RTIME">     -0.10000000</i>
   <i name="WPLASMAI">      0.00000000</i>
   <v name="DFIELD">      0.00000000      0.00000000      0.00000000</v>
   <v name="WPLASMA">      0.00000000      0.00000000      0.00000000      0.00000000      0.00000000      0.00000000      0.00000000      0.00000000      0.00000000</v>
  </separator>
  <separator name="orbital magnetization" >
   <i type="logical" name="NUCIND"> F  </i>
   <v name="MAGPOS">      0.00000000      0.00000000      0.00000000</v>
   <i type="logical" name="LNICSALL"> T  </i>
   <i type="logical" name="ORBITALMAG"> F  </i>
   <i type="logical" name="LMAGBLOCH"> F  </i>
   <i type="logical" name="LCHIMAG"> F  </i>
   <i type="logical" name="LGAUGE"> T  </i>
   <i type="int" name="MAGATOM">     0</i>
   <v name="MAGDIPOL">      0.00000000      0.00000000      0.00000000</v>
   <v name="AVECCONST">      0.00000000      0.00000000      0.00000000</v>
  </separator>
  <separator name="response functions" >
   <i type="logical" name="LADDER"> F  </i>
   <i type="logical" name="LRPAFORCE"> F  </i>
   <i type="logical" name="LFXC"> F  </i>
   <i type="logical" name="LHARTREE"> T  </i>
   <i type="int" name="IBSE">     0</i>
   <v type="int" name="KPOINT">    -1     0     0     0</v>
   <i type="logical" name="LTCTE"> F  </i>
   <i type="logical" name="LTETE"> F  </i>
   <i type="logical" name="LTRIPLET"> F  </i>
   <i type="logical" name="LFXCEPS"> F  </i>
   <i type="logical" name="LFXHEG"> F  </i>
   <i type="int" name="NATURALO">     2</i>
   <i type="logical" name="L2ORDER"> F  </i>
   <i type="logical" name="LMP2LT"> F  </i>
   <i type="logical" name="LUSEW"> F  </i>
   <i name="ENCUTGW">     -2.00000000</i>
   <i name="ENCUTGWSOFT">     -2.00000000</i>
   <i name="ENCUTLF">     -1.00000000</i>
   <i type="int" name="LMAXMP2">    -1</i>
   <i name="SCISSOR">      0.00000000</i>
   <i type="int" name="NOMEGA">     0</i>
   <i type="int" name="NOMEGAR">     0</i>
   <i type="int" name="NBANDSGW">    -1</i>
   <i type="int" name="NBANDSO">    -1</i>
   <i type="int" name="NBANDSV">    -1</i>
   <i type="int" name="NELM">   200</i>
   <i type="int" name="NELMHF">     1</i>
   <i type="int" name="DIM">     3</i>
   <i type="int" name="ANTIRES">     0</i>
   <i name="OMEGAMAX">    -30.00000000</i>
   <i name="OMEGAMIN">    -30.00000000</i>
   <i name="OMEGATL">   -200.00000000</i>
   <i type="int" name="OMEGAGRID">   140</i>
   <i name="CSHIFT">     -0.10000000</i>
   <i type="logical" name="SELFENERGY"> F  </i>
   <i type="logical" name="LSPECTRAL"> F  </i>
   <i type="logical" name="LSPECTRALGW"> F  </i>
   <i type="logical" name="LSINGLES"> F  </i>
   <i type="logical" name="LFERMIGW"> F  </i>
   <i type="logical" name="ODDONLYGW"> F  </i>
   <i type="logical" name="EVENONLYGW"> F  </i>
   <i type="int" name="NKREDLFX">     1</i>
   <i type="int" name="NKREDLFY">     1</i>
   <i type="int" name="NKREDLFZ">     1</i>
   <i type="int" name="MAXMEM">  2800</i>
   <i type="int" name="TELESCOPE">     0</i>
   <i type="int" name="TAUPAR">     1</i>
   <i type="int" name="OMEGAPAR">    -1</i>
   <i name="LAMBDA">      1.00000000</i>
  </separator>
  <separator name="External order field" >
   <i name="OFIELD_KAPPA">      0.00000000</i>
   <v name="OFIELD_K">      0.00000000      0.00000000      0.00000000</v>
   <i name="OFIELD_Q6_NEAR">      0.00000000</i>
   <i name="OFIELD_Q6_FAR">      0.00000000</i>
   <i name="OFIELD_A">      0.00000000</i>
  </separator>
  <separator name="solvation model" >
   <i type="logical" name="LSOL"> F  </i>
  </separator>
 </parameters>
 <atominfo>
  <atoms>     105 </atoms>
  <types>       3 </types>
  <array name="atoms" >
   <dimension dim="1">ion</dimension>
   <field type="string">element</field>
   <field type="int">atomtype</field>
   <set>
    <rc><c>H </c><c>   1</c></rc>
    <rc><c>H </c><c>   1</c></rc>
    <rc><c>H </c><c>   1</c></rc>
    <rc><c>H </c><c>   1</c></rc>
    <rc><c>H </c><c>   1</c></rc>
    <rc><c>H </c><c>   1</c></rc>
    <rc><c>H </c><c>   1</c></rc>
    <rc><c>H </c><c>   1</c></rc>
    <rc><c>H </c><c>   1</c></rc>
    <rc><c>H </c><c>   1</c></rc>
    <rc><c>H </c><c>   1</c></rc>
    <rc><c>H </c><c>   1</c></rc>
    <rc><c>H </c><c>   1</c></rc>
    <rc><c>H </c><c>   1</c></rc>
    <rc><c>H </c><c>   1</c></rc>
    <rc><c>H </c><c>   1</c></rc>
    <rc><c>H </c><c>   1</c></rc>
    <rc><c>H </c><c>   1</c></rc>
    <rc><c>H </c><c>   1</c></rc>
    <rc><c>H </c><c>   1</c></rc>
    <rc><c>H </c><c>   1</c></rc>
    <rc><c>H </c><c>   1</c></rc>
    <rc><c>H </c><c>   1</c></rc>
    <rc><c>H </c><c>   1</c></rc>
    <rc><c>H </c><c>   1</c></rc>
    <rc><c>H </c><c>   1</c></rc>
    <rc><c>H </c><c>   1</c></rc>
    <rc><c>H </c><c>   1</c></rc>
    <rc><c>H </c><c>   1</c></rc>
    <rc><c>H </c><c>   1</c></rc>
    <rc><c>H </c><c>   1</c></rc>
    <rc><c>H </c><c>   1</c></rc>
    <rc><c>H </c><c>   1</c></rc>
    <rc><c>H </c><c>   1</c></rc>
    <rc><c>H </c><c>   1</c></rc>
    <rc><c>H </c><c>   1</c></rc>
    <rc><c>N </c><c>   2</c></rc>
    <rc><c>N </c><c>   2</c></rc>
    <rc><c>N </c><c>   2</c></rc>
    <rc><c>N </c><c>   2</c></rc>
    <rc><c>N </c><c>   2</c></rc>
    <rc><c>N </c><c>   2</c></rc>
    <rc><c>N </c><c>   2</c></rc>
    <rc><c>N </c><c>   2</c></rc>
    <rc><c>N </c><c>   2</c></rc>
    <rc><c>N </c><c>   2</c></rc>
    <rc><c>N </c><c>   2</c></rc>
    <rc><c>N </c><c>   2</c></rc>
    <rc><c>C </c><c>   3</c></rc>
    <rc><c>C </c><c>   3</c></rc>
    <rc><c>C </c><c>   3</c></rc>
    <rc><c>C </c><c>   3</c></rc>
    <rc><c>C </c><c>   3</c></rc>
    <rc><c>C </c><c>   3</c></rc>
    <rc><c>C </c><c>   3</c></rc>
    <rc><c>C </c><c>   3</c></rc>
    <rc><c>C </c><c>   3</c></rc>
    <rc><c>C </c><c>   3</c></rc>
    <rc><c>C </c><c>   3</c></rc>
    <rc><c>C </c><c>   3</c></rc>
    <rc><c>C </c><c>   3</c></rc>
    <rc><c>C </c><c>   3</c></rc>
    <rc><c>C </c><c>   3</c></rc>
    <rc><c>C </c><c>   3</c></rc>
    <rc><c>C </c><c>   3</c></rc>
    <rc><c>C </c><c>   3</c></rc>
    <rc><c>C </c><c>   3</c></rc>
    <rc><c>C </c><c>   3</c></rc>
    <rc><c>C </c><c>   3</c></rc>
    <rc><c>C </c><c>   3</c></rc>
    <rc><c>C </c><c>   3</c></rc>
    <rc><c>C </c><c>   3</c></rc>
    <rc><c>C </c><c>   3</c></rc>
    <rc><c>C </c><c>   3</c></rc>
    <rc><c>C </c><c>   3</c></rc>
    <rc><c>C </c><c>   3</c></rc>
    <rc><c>C </c><c>   3</c></rc>
    <rc><c>C </c><c>   3</c></rc>
    <rc><c>C </c><c>   3</c></rc>
    <rc><c>C </c><c>   3</c></rc>
    <rc><c>C </c><c>   3</c></rc>
    <rc><c>C </c><c>   3</c></rc>
    <rc><c>C </c><c>   3</c></rc>
    <rc><c>C </c><c>   3</c></rc>
    <rc><c>C </c><c>   3</c></rc>
    <rc><c>C </c><c>   3</c></rc>
    <rc><c>C </c><c>   3</c></rc>
    <rc><c>C </c><c>   3</c></rc>
    <rc><c>C </c><c>   3</c></rc>
    <rc><c>C </c><c>   3</c></rc>
    <rc><c>C </c><c>   3</c></rc>
    <rc><c>C </c><c>   3</c></rc>
    <rc><c>C </c><c>   3</c></rc>
    <rc><c>C </c><c>   3</c></rc>
    <rc><c>C </c><c>   3</c></rc>
    <rc><c>C </c><c>   3</c></rc>
    <rc><c>C </c><c>   3</c></rc>
    <rc><c>C </c><c>   3</c></rc>
    <rc><c>C </c><c>   3</c></rc>
    <rc><c>C </c><c>   3</c></rc>
    <rc><c>C </c><c>   3</c></rc>
    <rc><c>C </c><c>   3</c></rc>
    <rc><c>C </c><c>   3</c></rc>
    <rc><c>C </c><c>   3</c></rc>
    <rc><c>C </c><c>   3</c></rc>
   </set>
  </array>
  <array name="atomtypes" >
   <dimension dim="1">type</dimension>
   <field type="int">atomspertype</field>
   <field type="string">element</field>
   <field>mass</field>
   <field>valence</field>
   <field type="string">pseudopotential</field>
   <set>
    <rc><c>  36</c><c>H </c><c>      1.00000000</c><c>      1.00000000</c><c>  PAW_PBE H 15Jun2001                   </c></rc>
    <rc><c>  12</c><c>N </c><c>     14.00100000</c><c>      5.00000000</c><c>  PAW_PBE N 08Apr2002                   </c></rc>
    <rc><c>  57</c><c>C </c><c>     12.01100000</c><c>      4.00000000</c><c>  PAW_PBE C 08Apr2002                   </c></rc>
   </set>
  </array>
 </atominfo>
 <structure name="initialpos" >
  <crystal>
   <varray name="basis" >
    <v>      29.25250137       0.00000000       0.00000000 </v>
    <v>     -14.62625069      25.33340931       0.00000000 </v>
    <v>       0.00000000       0.00000000      20.00000000 </v>
   </varray>
   <i name="volume">  14821.31181506 </i>
   <varray name="rec_basis" >
    <v>       0.03418511       0.01973678       0.00000000 </v>
    <v>       0.00000000       0.03947357       0.00000000 </v>
    <v>       0.00000000       0.00000000       0.05000000 </v>
   </varray>
  </crystal>
  <varray name="positions" >
   <v>       0.02067246       0.51033623       0.67080622 </v>
   <v>       0.51443271       0.88160891       0.50311073 </v>
   <v>       0.46494630       0.78310259       0.50153598 </v>
   <v>       0.36717620       0.88160891       0.50311073 </v>
   <v>       0.31815629       0.78310259       0.50153598 </v>
   <v>       0.21689741       0.68184371       0.50153598 </v>
   <v>       0.11839109       0.63282380       0.50311073 </v>
   <v>       0.21689741       0.53505370       0.50153598 </v>
   <v>       0.11839109       0.48556729       0.50311073 </v>
   <v>       0.31815629       0.53505370       0.50153598 </v>
   <v>       0.36717620       0.48556729       0.50311073 </v>
   <v>       0.51443271       0.63282380       0.50311073 </v>
   <v>       0.46494630       0.68184371       0.50153598 </v>
   <v>       0.48557764       0.11842845       0.50291812 </v>
   <v>       0.53511087       0.21700911       0.50266537 </v>
   <v>       0.63285081       0.11842845       0.50291812 </v>
   <v>       0.68189824       0.21700911       0.50266537 </v>
   <v>       0.78299089       0.31810176       0.50266537 </v>
   <v>       0.88157155       0.36714919       0.50291812 </v>
   <v>       0.78299089       0.46488913       0.50266537 </v>
   <v>       0.88157155       0.51442236       0.50291812 </v>
   <v>       0.68189824       0.46488913       0.50266537 </v>
   <v>       0.63285081       0.51442236       0.50291812 </v>
   <v>       0.48557764       0.36714919       0.50291812 </v>
   <v>       0.53511087       0.31810176       0.50266537 </v>
   <v>       0.48966377       0.51033623       0.67080622 </v>
   <v>       0.43178250       0.50797676       0.63718547 </v>
   <v>       0.49202324       0.56821750       0.63718547 </v>
   <v>       0.48966377       0.97932754       0.67080622 </v>
   <v>       0.49202324       0.92380574       0.63718547 </v>
   <v>       0.43178250       0.92380574       0.63718547 </v>
   <v>       0.07619426       0.56821750       0.63718547 </v>
   <v>       0.07619426       0.50797676       0.63718547 </v>
   <v>       0.52183072       0.47816928       0.39540179 </v>
   <v>       0.52183072       0.04366144       0.39540179 </v>
   <v>       0.95633856       0.47816928       0.39540179 </v>
   <v>       0.02887988       0.51443994       0.44401942 </v>
   <v>       0.38758147       0.69379073       0.50048198 </v>
   <v>       0.30620927       0.61241853       0.50048198 </v>
   <v>       0.30620927       0.69379073       0.50048198 </v>
   <v>       0.61243592       0.30621796       0.50305993 </v>
   <v>       0.69378204       0.38756408       0.50305993 </v>
   <v>       0.69378204       0.30621796       0.50305993 </v>
   <v>       0.51449779       0.48550221       0.56326125 </v>
   <v>       0.51449779       0.02899557       0.56326125 </v>
   <v>       0.97100443       0.48550221       0.56326125 </v>
   <v>       0.48556006       0.51443994       0.44401942 </v>
   <v>       0.48556006       0.97112012       0.44401942 </v>
   <v>       0.02402048       0.51201024       0.56415920 </v>
   <v>       0.05308127       0.52654063       0.50366466 </v>
   <v>       0.05061658       0.52530829       0.63128029 </v>
   <v>       0.35927324       0.71854649       0.50060276 </v>
   <v>       0.35927324       0.64072676       0.50060276 </v>
   <v>       0.28145351       0.64072676       0.50060276 </v>
   <v>       0.38849076       0.61150924       0.50151620 </v>
   <v>       0.44393805       0.63885338       0.50206622 </v>
   <v>       0.47135559       0.61133416       0.50307522 </v>
   <v>       0.44403070       0.55596930       0.50340367 </v>
   <v>       0.38866584       0.52864441       0.50307522 </v>
   <v>       0.36114662       0.55606195       0.50206622 </v>
   <v>       0.38849076       0.77698152       0.50151620 </v>
   <v>       0.44393805       0.80508467       0.50206622 </v>
   <v>       0.47135559       0.86002143       0.50307522 </v>
   <v>       0.44403070       0.88806141       0.50340367 </v>
   <v>       0.38866584       0.86002143       0.50307522 </v>
   <v>       0.36114662       0.80508467       0.50206622 </v>
   <v>       0.22301848       0.61150924       0.50151620 </v>
   <v>       0.19491533       0.63885338       0.50206622 </v>
   <v>       0.13997857       0.61133416       0.50307522 </v>
   <v>       0.11193859       0.55596930       0.50340367 </v>
   <v>       0.13997857       0.52864441       0.50307522 </v>
   <v>       0.19491533       0.55606195       0.50206622 </v>
   <v>       0.64073632       0.28147265       0.50302369 </v>
   <v>       0.64073632       0.35926368       0.50302369 </v>
   <v>       0.71852735       0.35926368       0.50302369 </v>
   <v>       0.61153299       0.38846701       0.50274434 </v>
   <v>       0.55609291       0.36110336       0.50262787 </v>
   <v>       0.52865666       0.38861937       0.50265503 </v>
   <v>       0.55601705       0.44398295       0.50286050 </v>
   <v>       0.61138063       0.47134334       0.50265503 </v>
   <v>       0.63889664       0.44390709       0.50262787 </v>
   <v>       0.61153299       0.22306598       0.50274434 </v>
   <v>       0.55609291       0.19498955       0.50262787 </v>
   <v>       0.52865666       0.14003729       0.50265503 </v>
   <v>       0.55601705       0.11203410       0.50286050 </v>
   <v>       0.61138063       0.14003729       0.50265503 </v>
   <v>       0.63889664       0.19498955       0.50262787 </v>
   <v>       0.77693402       0.38846701       0.50274434 </v>
   <v>       0.80501045       0.36110336       0.50262787 </v>
   <v>       0.85996271       0.38861937       0.50265503 </v>
   <v>       0.88796590       0.44398295       0.50286050 </v>
   <v>       0.85996271       0.47134334       0.50265503 </v>
   <v>       0.80501045       0.44390709       0.50262787 </v>
   <v>       0.48798976       0.51201024       0.56415920 </v>
   <v>       0.47345937       0.52654063       0.50366466 </v>
   <v>       0.47469171       0.52530829       0.63128029 </v>
   <v>       0.48798976       0.97597952       0.56415920 </v>
   <v>       0.47345937       0.94691873       0.50366466 </v>
   <v>       0.47469171       0.94938342       0.63128029 </v>
   <v>       0.52662483       0.47337517       0.50345506 </v>
   <v>       0.51199082       0.48800918       0.44404357 </v>
   <v>       0.52662483       0.05324965       0.50345506 </v>
   <v>       0.51199082       0.02398164       0.44404357 </v>
   <v>       0.94675035       0.47337517       0.50345506 </v>
   <v>       0.97601836       0.48800918       0.44404357 </v>
  </varray>
 </structure>
 <calculation>
  <scstep>
   <time name="dav">  552.20  558.66</time>
   <time name="total">  552.45  558.92</time>
   <energy>
    <i name="alphaZ">     33.15969097 </i>
    <i name="ewald">  39038.47265344 </i>
    <i name="hartreedc"> -48827.67188029 </i>
    <i name="XCdc">   1123.17827496 </i>
    <i name="pawpsdc">  30088.74859099 </i>
    <i name="pawaedc"> -30145.23382644 </i>
    <i name="eentropy">     -0.00000000 </i>
    <i name="bandstr">  -4064.88641884 </i>
    <i name="atom">  12011.38970447 </i>
    <i name="e_fr_energy">   -742.84321073 </i>
    <i name="e_wo_entrp">   -742.84321073 </i>
    <i name="e_0_energy">   -742.84321073 </i>
   </energy>
  </scstep>
  <scstep>
   <time name="dav">  604.81  611.78</time>
   <time name="total">  604.82  611.78</time>
   <energy>
    <i name="e_fr_energy">   -743.25412647 </i>
    <i name="e_wo_entrp">   -743.25412647 </i>
    <i name="e_0_energy">   -743.25412647 </i>
   </energy>
  </scstep>
  <scstep>
   <time name="dav">  680.80  688.48</time>
   <time name="total">  680.80  688.48</time>
   <energy>
    <i name="e_fr_energy">   -743.26773866 </i>
    <i name="e_wo_entrp">   -743.26773866 </i>
    <i name="e_0_energy">   -743.26773866 </i>
   </energy>
  </scstep>
  <scstep>
   <time name="dav">  605.58  612.36</time>
   <time name="total">  605.58  612.36</time>
   <energy>
    <i name="e_fr_energy">   -743.26798081 </i>
    <i name="e_wo_entrp">   -743.26798081 </i>
    <i name="e_0_energy">   -743.26798081 </i>
   </energy>
  </scstep>
  <scstep>
   <time name="dav">  603.85  610.62</time>
   <time name="total">  603.85  610.63</time>
   <energy>
    <i name="e_fr_energy">   -743.26799468 </i>
    <i name="e_wo_entrp">   -743.26799468 </i>
    <i name="e_0_energy">   -743.26799468 </i>
   </energy>
  </scstep>
  <scstep>
   <time name="dav">  458.78  463.92</time>
   <time name="total">  458.78  463.92</time>
   <energy>
    <i name="alphaZ">     33.15969097 </i>
    <i name="ewald">  39038.47265344 </i>
    <i name="hartreedc"> -48827.67188029 </i>
    <i name="XCdc">   1123.17827496 </i>
    <i name="pawpsdc">  30088.74859099 </i>
    <i name="pawaedc"> -30145.23382644 </i>
    <i name="eentropy">     -0.00000000 </i>
    <i name="bandstr">  -4065.31120303 </i>
    <i name="atom">  12011.38970447 </i>
    <i name="e_fr_energy">   -743.26799492 </i>
    <i name="e_wo_entrp">   -743.26799492 </i>
    <i name="e_0_energy">   -743.26799492 </i>
   </energy>
  </scstep>
  <structure>
   <crystal>
    <varray name="basis" >
     <v>      29.25250137       0.00000000       0.00000000 </v>
     <v>     -14.62625069      25.33340931       0.00000000 </v>
     <v>       0.00000000       0.00000000      20.00000000 </v>
    </varray>
    <i name="volume">  14821.31181506 </i>
    <varray name="rec_basis" >
     <v>       0.03418511       0.01973678       0.00000000 </v>
     <v>       0.00000000       0.03947357       0.00000000 </v>
     <v>       0.00000000       0.00000000       0.05000000 </v>
    </varray>
   </crystal>
   <varray name="positions" >
    <v>       0.02067246       0.51033623       0.67080622 </v>
    <v>       0.51443271       0.88160891       0.50311073 </v>
    <v>       0.46494630       0.78310259       0.50153598 </v>
    <v>       0.36717620       0.88160891       0.50311073 </v>
    <v>       0.31815629       0.78310259       0.50153598 </v>
    <v>       0.21689741       0.68184371       0.50153598 </v>
    <v>       0.11839109       0.63282380       0.50311073 </v>
    <v>       0.21689741       0.53505370       0.50153598 </v>
    <v>       0.11839109       0.48556729       0.50311073 </v>
    <v>       0.31815629       0.53505370       0.50153598 </v>
    <v>       0.36717620       0.48556729       0.50311073 </v>
    <v>       0.51443271       0.63282380       0.50311073 </v>
    <v>       0.46494630       0.68184371       0.50153598 </v>
    <v>       0.48557764       0.11842845       0.50291812 </v>
    <v>       0.53511087       0.21700911       0.50266537 </v>
    <v>       0.63285081       0.11842845       0.50291812 </v>
    <v>       0.68189824       0.21700911       0.50266537 </v>
    <v>       0.78299089       0.31810176       0.50266537 </v>
    <v>       0.88157155       0.36714919       0.50291812 </v>
    <v>       0.78299089       0.46488913       0.50266537 </v>
    <v>       0.88157155       0.51442236       0.50291812 </v>
    <v>       0.68189824       0.46488913       0.50266537 </v>
    <v>       0.63285081       0.51442236       0.50291812 </v>
    <v>       0.48557764       0.36714919       0.50291812 </v>
    <v>       0.53511087       0.31810176       0.50266537 </v>
    <v>       0.48966377       0.51033623       0.67080622 </v>
    <v>       0.43178250       0.50797676       0.63718547 </v>
    <v>       0.49202324       0.56821750       0.63718547 </v>
    <v>       0.48966377       0.97932754       0.67080622 </v>
    <v>       0.49202324       0.92380574       0.63718547 </v>
    <v>       0.43178250       0.92380574       0.63718547 </v>
    <v>       0.07619426       0.56821750       0.63718547 </v>
    <v>       0.07619426       0.50797676       0.63718547 </v>
    <v>       0.52183072       0.47816928       0.39540179 </v>
    <v>       0.52183072       0.04366144       0.39540179 </v>
    <v>       0.95633856       0.47816928       0.39540179 </v>
    <v>       0.02887988       0.51443994       0.44401942 </v>
    <v>       0.38758147       0.69379073       0.50048198 </v>
    <v>       0.30620927       0.61241853       0.50048198 </v>
    <v>       0.30620927       0.69379073       0.50048198 </v>
    <v>       0.61243592       0.30621796       0.50305993 </v>
    <v>       0.69378204       0.38756408       0.50305993 </v>
    <v>       0.69378204       0.30621796       0.50305993 </v>
    <v>       0.51449779       0.48550221       0.56326125 </v>
    <v>       0.51449779       0.02899557       0.56326125 </v>
    <v>       0.97100443       0.48550221       0.56326125 </v>
    <v>       0.48556006       0.51443994       0.44401942 </v>
    <v>       0.48556006       0.97112012       0.44401942 </v>
    <v>       0.02402048       0.51201024       0.56415920 </v>
    <v>       0.05308127       0.52654063       0.50366466 </v>
    <v>       0.05061658       0.52530829       0.63128029 </v>
    <v>       0.35927324       0.71854649       0.50060276 </v>
    <v>       0.35927324       0.64072676       0.50060276 </v>
    <v>       0.28145351       0.64072676       0.50060276 </v>
    <v>       0.38849076       0.61150924       0.50151620 </v>
    <v>       0.44393805       0.63885338       0.50206622 </v>
    <v>       0.47135559       0.61133416       0.50307522 </v>
    <v>       0.44403070       0.55596930       0.50340367 </v>
    <v>       0.38866584       0.52864441       0.50307522 </v>
    <v>       0.36114662       0.55606195       0.50206622 </v>
    <v>       0.38849076       0.77698152       0.50151620 </v>
    <v>       0.44393805       0.80508467       0.50206622 </v>
    <v>       0.47135559       0.86002143       0.50307522 </v>
    <v>       0.44403070       0.88806141       0.50340367 </v>
    <v>       0.38866584       0.86002143       0.50307522 </v>
    <v>       0.36114662       0.80508467       0.50206622 </v>
    <v>       0.22301848       0.61150924       0.50151620 </v>
    <v>       0.19491533       0.63885338       0.50206622 </v>
    <v>       0.13997857       0.61133416       0.50307522 </v>
    <v>       0.11193859       0.55596930       0.50340367 </v>
    <v>       0.13997857       0.52864441       0.50307522 </v>
    <v>       0.19491533       0.55606195       0.50206622 </v>
    <v>       0.64073632       0.28147265       0.50302369 </v>
    <v>       0.64073632       0.35926368       0.50302369 </v>
    <v>       0.71852735       0.35926368       0.50302369 </v>
    <v>       0.61153299       0.38846701       0.50274434 </v>
    <v>       0.55609291       0.36110336       0.50262787 </v>
    <v>       0.52865666       0.38861937       0.50265503 </v>
    <v>       0.55601705       0.44398295       0.50286050 </v>
    <v>       0.61138063       0.47134334       0.50265503 </v>
    <v>       0.63889664       0.44390709       0.50262787 </v>
    <v>       0.61153299       0.22306598       0.50274434 </v>
    <v>       0.55609291       0.19498955       0.50262787 </v>
    <v>       0.52865666       0.14003729       0.50265503 </v>
    <v>       0.55601705       0.11203410       0.50286050 </v>
    <v>       0.61138063       0.14003729       0.50265503 </v>
    <v>       0.63889664       0.19498955       0.50262787 </v>
    <v>       0.77693402       0.38846701       0.50274434 </v>
    <v>       0.80501045       0.36110336       0.50262787 </v>
    <v>       0.85996271       0.38861937       0.50265503 </v>
    <v>       0.88796590       0.44398295       0.50286050 </v>
    <v>       0.85996271       0.47134334       0.50265503 </v>
    <v>       0.80501045       0.44390709       0.50262787 </v>
    <v>       0.48798976       0.51201024       0.56415920 </v>
    <v>       0.47345937       0.52654063       0.50366466 </v>
    <v>       0.47469171       0.52530829       0.63128029 </v>
    <v>       0.48798976       0.97597952       0.56415920 </v>
    <v>       0.47345937       0.94691873       0.50366466 </v>
    <v>       0.47469171       0.94938342       0.63128029 </v>
    <v>       0.52662483       0.47337517       0.50345506 </v>
    <v>       0.51199082       0.48800918       0.44404357 </v>
    <v>       0.52662483       0.05324965       0.50345506 </v>
    <v>       0.51199082       0.02398164       0.44404357 </v>
    <v>       0.94675035       0.47337517       0.50345506 </v>
    <v>       0.97601836       0.48800918       0.44404357 </v>
   </varray>
  </structure>
  <varray name="forces" >
   <v>       0.00404680       0.00233642       0.00140165 </v>
   <v>       0.00179193       0.00106082      -0.00385741 </v>
   <v>       0.00511854      -0.00127969      -0.00300225 </v>
   <v>      -0.00179193       0.00106082      -0.00385741 </v>
   <v>      -0.00511854      -0.00127969      -0.00300225 </v>
   <v>      -0.00145102       0.00507263      -0.00300225 </v>
   <v>      -0.00181466       0.00102145      -0.00385741 </v>
   <v>       0.00366752      -0.00379294      -0.00300225 </v>
   <v>      -0.00002273      -0.00208227      -0.00385741 </v>
   <v>      -0.00366752      -0.00379294      -0.00300225 </v>
   <v>       0.00002273      -0.00208227      -0.00385741 </v>
   <v>       0.00181466       0.00102145      -0.00385741 </v>
   <v>       0.00145102       0.00507263      -0.00300225 </v>
   <v>       0.00627665       0.00375686       0.00025224 </v>
   <v>       0.00137219      -0.00443030       0.00222797 </v>
   <v>      -0.00627665       0.00375686       0.00025224 </v>
   <v>      -0.00137219      -0.00443030       0.00222797 </v>
   <v>       0.00315066       0.00340350       0.00222797 </v>
   <v>      -0.00639186       0.00355731       0.00025224 </v>
   <v>       0.00452285       0.00102680       0.00222797 </v>
   <v>      -0.00011521      -0.00731417       0.00025224 </v>
   <v>      -0.00452285       0.00102680       0.00222797 </v>
   <v>       0.00011521      -0.00731417       0.00025224 </v>
   <v>       0.00639186       0.00355731       0.00025224 </v>
   <v>      -0.00315066       0.00340350       0.00222797 </v>
   <v>      -0.00404680       0.00233642       0.00140165 </v>
   <v>      -0.00274896       0.00235564       0.00142479 </v>
   <v>      -0.00341452       0.00120285       0.00142479 </v>
   <v>       0.00000000      -0.00467285       0.00140165 </v>
   <v>      -0.00066557      -0.00355848       0.00142479 </v>
   <v>       0.00066557      -0.00355848       0.00142479 </v>
   <v>       0.00341452       0.00120285       0.00142479 </v>
   <v>       0.00274896       0.00235564       0.00142479 </v>
   <v>      -0.00201811       0.00116516      -0.00081669 </v>
   <v>       0.00000000      -0.00233032      -0.00081669 </v>
   <v>       0.00201811       0.00116516      -0.00081669 </v>
   <v>      -0.00172186      -0.00099412      -0.00072094 </v>
   <v>       0.00286010       0.00165128       0.00530259 </v>
   <v>       0.00000000      -0.00330256       0.00530259 </v>
   <v>      -0.00286010       0.00165128       0.00530259 </v>
   <v>       0.00049590       0.00028631      -0.00184374 </v>
   <v>       0.00000000      -0.00057262      -0.00184374 </v>
   <v>      -0.00049590       0.00028631      -0.00184374 </v>
   <v>       0.00069565      -0.00040164      -0.00230484 </v>
   <v>      -0.00000000       0.00080327      -0.00230484 </v>
   <v>      -0.00069565      -0.00040164      -0.00230484 </v>
   <v>       0.00172186      -0.00099412      -0.00072094 </v>
   <v>      -0.00000000       0.00198824      -0.00072094 </v>
   <v>       0.00463478       0.00267589       0.00149351 </v>
   <v>      -0.00204668      -0.00118165      -0.00112899 </v>
   <v>       0.00227255       0.00131206      -0.00411179 </v>
   <v>      -0.00000000       0.00099168       0.00105880 </v>
   <v>       0.00085882      -0.00049584       0.00105880 </v>
   <v>      -0.00085882      -0.00049584       0.00105880 </v>
   <v>      -0.00396214       0.00228754      -0.00004883 </v>
   <v>      -0.00373993      -0.00110175       0.00078165 </v>
   <v>      -0.00164405      -0.00554006      -0.00088270 </v>
   <v>       0.00644564      -0.00372139       0.00205497 </v>
   <v>       0.00397581       0.00419382      -0.00088270 </v>
   <v>      -0.00091582       0.00378975       0.00078165 </v>
   <v>       0.00000000      -0.00457508      -0.00004883 </v>
   <v>      -0.00282411      -0.00268800       0.00078165 </v>
   <v>      -0.00561986       0.00134625      -0.00088270 </v>
   <v>      -0.00000000       0.00744278       0.00205497 </v>
   <v>       0.00561986       0.00134625      -0.00088270 </v>
   <v>       0.00282411      -0.00268800       0.00078165 </v>
   <v>       0.00396214       0.00228754      -0.00004883 </v>
   <v>       0.00373993      -0.00110175       0.00078165 </v>
   <v>       0.00164405      -0.00554006      -0.00088270 </v>
   <v>      -0.00644564      -0.00372139       0.00205497 </v>
   <v>      -0.00397581       0.00419382      -0.00088270 </v>
   <v>       0.00091582       0.00378975       0.00078165 </v>
   <v>       0.00000000      -0.00198595      -0.00632692 </v>
   <v>      -0.00171988       0.00099298      -0.00632692 </v>
   <v>       0.00171988       0.00099298      -0.00632692 </v>
   <v>      -0.00818279       0.00472434       0.00044543 </v>
   <v>      -0.00564662      -0.00318611       0.00251010 </v>
   <v>       0.00100990      -0.00101601      -0.00032429 </v>
   <v>       0.00632504      -0.00365176      -0.00008204 </v>
   <v>       0.00138484      -0.00036660      -0.00032429 </v>
   <v>      -0.00006406       0.00648317       0.00251010 </v>
   <v>       0.00000000      -0.00944867       0.00044543 </v>
   <v>      -0.00558256      -0.00329706       0.00251010 </v>
   <v>      -0.00037494       0.00138260      -0.00032429 </v>
   <v>      -0.00000000       0.00730353      -0.00008204 </v>
   <v>       0.00037494       0.00138260      -0.00032429 </v>
   <v>       0.00558256      -0.00329706       0.00251010 </v>
   <v>       0.00818279       0.00472434       0.00044543 </v>
   <v>       0.00564662      -0.00318611       0.00251010 </v>
   <v>      -0.00100990      -0.00101601      -0.00032429 </v>
   <v>      -0.00632504      -0.00365176      -0.00008204 </v>
   <v>      -0.00138484      -0.00036660      -0.00032429 </v>
   <v>       0.00006406       0.00648317       0.00251010 </v>
   <v>      -0.00463478       0.00267589       0.00149351 </v>
   <v>       0.00204668      -0.00118165      -0.00112899 </v>
   <v>      -0.00227255       0.00131206      -0.00411179 </v>
   <v>       0.00000000      -0.00535178       0.00149351 </v>
   <v>      -0.00000000       0.00236331      -0.00112899 </v>
   <v>       0.00000000      -0.00262411      -0.00411179 </v>
   <v>       0.00140578      -0.00081163       0.00667948 </v>
   <v>       0.00132628      -0.00076573       0.00068818 </v>
   <v>      -0.00000000       0.00162326       0.00667948 </v>
   <v>      -0.00000000       0.00153145       0.00068818 </v>
   <v>      -0.00140578      -0.00081163       0.00667948 </v>
   <v>      -0.00132628      -0.00076573       0.00068818 </v>
  </varray>
  <varray name="stress" >
   <v>       0.00127846      -0.00000000       0.00000000 </v>
   <v>      -0.00000000       0.00127846       0.00000000 </v>
   <v>      -0.00000000       0.00000000      -0.12625695 </v>
  </varray>
  <energy>
   <i name="e_fr_energy">   -745.24888110 </i>
   <i name="e_wo_entrp">   -745.24888110 </i>
   <i name="e_0_energy">     -0.00000000 </i>
  </energy>
  <time name="totalsc"> 4155.71 4204.86</time>
  <eigenvalues>
   <array>
    <dimension dim="1">band</dimension>
    <dimension dim="2">kpoint</dimension>
    <dimension dim="3">spin</dimension>
    <field>eigene</field>
    <field>occ</field>
    <set>
     <set comment="spin 1">
      <set comment="kpoint 1">
       <r>  -25.2946    1.0000 </r>
       <r>  -25.2624    1.0000 </r>
       <r>  -24.3554    1.0000 </r>
       <r>  -24.3553    1.0000 </r>
       <r>  -24.3551    1.0000 </r>
       <r>  -22.5057    1.0000 </r>
       <r>  -22.5056    1.0000 </r>
       <r>  -22.4975    1.0000 </r>
       <r>  -22.3715    1.0000 </r>
       <r>  -22.3711    1.0000 </r>
       <r>  -22.3368    1.0000 </r>
       <r>  -22.3365    1.0000 </r>
       <r>  -21.3480    1.0000 </r>
       <r>  -21.2850    1.0000 </r>
       <r>  -21.2847    1.0000 </r>
       <r>  -21.2742    1.0000 </r>
       <r>  -21.2048    1.0000 </r>
       <r>  -21.2047    1.0000 </r>
       <r>  -19.9791    1.0000 </r>
       <r>  -19.9791    1.0000 </r>
       <r>  -19.9620    1.0000 </r>
       <r>  -19.1664    1.0000 </r>
       <r>  -19.1664    1.0000 </r>
       <r>  -18.9939    1.0000 </r>
       <r>  -18.6149    1.0000 </r>
       <r>  -18.6148    1.0000 </r>
       <r>  -18.4434    1.0000 </r>
       <r>  -18.4128    1.0000 </r>
       <r>  -18.4121    1.0000 </r>
       <r>  -18.3963    1.0000 </r>
       <r>  -18.3510    1.0000 </r>
       <r>  -18.3506    1.0000 </r>
       <r>  -18.3322    1.0000 </r>
       <r>  -17.5599    1.0000 </r>
       <r>  -17.5598    1.0000 </r>
       <r>  -17.4471    1.0000 </r>
       <r>  -17.1512    1.0000 </r>
       <r>  -17.1510    1.0000 </r>
       <r>  -16.4655    1.0000 </r>
       <r>  -16.4023    1.0000 </r>
       <r>  -16.4022    1.0000 </r>
       <r>  -15.6130    1.0000 </r>
       <r>  -15.6130    1.0000 </r>
       <r>  -15.4070    1.0000 </r>
       <r>  -15.2570    1.0000 </r>
       <r>  -15.2569    1.0000 </r>
       <r>  -15.1599    1.0000 </r>
       <r>  -15.1160    1.0000 </r>
       <r>  -15.0153    1.0000 </r>
       <r>  -14.8617    1.0000 </r>
       <r>  -14.8614    1.0000 </r>
       <r>  -14.7647    1.0000 </r>
       <r>  -14.7646    1.0000 </r>
       <r>  -14.4670    1.0000 </r>
       <r>  -14.1604    1.0000 </r>
       <r>  -14.1601    1.0000 </r>
       <r>  -13.9910    1.0000 </r>
       <r>  -13.9908    1.0000 </r>
       <r>  -13.2428    1.0000 </r>
       <r>  -13.2321    1.0000 </r>
       <r>  -13.2006    1.0000 </r>
       <r>  -13.1818    1.0000 </r>
       <r>  -12.9142    1.0000 </r>
       <r>  -12.9142    1.0000 </r>
       <r>  -12.8836    1.0000 </r>
       <r>  -12.7170    1.0000 </r>
       <r>  -12.7167    1.0000 </r>
       <r>  -12.4822    1.0000 </r>
       <r>  -12.4820    1.0000 </r>
       <r>  -12.3493    1.0000 </r>
       <r>  -11.8197    1.0000 </r>
       <r>  -11.5639    1.0000 </r>
       <r>  -11.5637    1.0000 </r>
       <r>  -11.3781    1.0000 </r>
       <r>  -11.3781    1.0000 </r>
       <r>  -11.1574    1.0000 </r>
       <r>  -11.1223    1.0000 </r>
       <r>  -11.0976    1.0000 </r>
       <r>  -11.0582    1.0000 </r>
       <r>  -11.0581    1.0000 </r>
       <r>  -10.9566    1.0000 </r>
       <r>  -10.9566    1.0000 </r>
       <r>  -10.8153    1.0000 </r>
       <r>  -10.7970    1.0000 </r>
       <r>  -10.6863    1.0000 </r>
       <r>  -10.6848    1.0000 </r>
       <r>  -10.6843    1.0000 </r>
       <r>  -10.4450    1.0000 </r>
       <r>  -10.4448    1.0000 </r>
       <r>  -10.3898    1.0000 </r>
       <r>  -10.3897    1.0000 </r>
       <r>  -10.3861    1.0000 </r>
       <r>  -10.3637    1.0000 </r>
       <r>  -10.1546    1.0000 </r>
       <r>  -10.1538    1.0000 </r>
       <r>  -10.0987    1.0000 </r>
       <r>  -10.0982    1.0000 </r>
       <r>  -10.0675    1.0000 </r>
       <r>  -10.0319    1.0000 </r>
       <r>   -9.9408    1.0000 </r>
       <r>   -9.9085    1.0000 </r>
       <r>   -9.9084    1.0000 </r>
       <r>   -9.5001    1.0000 </r>
       <r>   -9.5001    1.0000 </r>
       <r>   -9.4747    1.0000 </r>
       <r>   -9.4746    1.0000 </r>
       <r>   -9.4724    1.0000 </r>
       <r>   -9.4664    1.0000 </r>
       <r>   -9.4662    1.0000 </r>
       <r>   -9.3998    1.0000 </r>
       <r>   -9.3650    1.0000 </r>
       <r>   -9.3649    1.0000 </r>
       <r>   -9.2432    1.0000 </r>
       <r>   -9.2432    1.0000 </r>
       <r>   -8.9184    1.0000 </r>
       <r>   -8.8499    1.0000 </r>
       <r>   -8.7683    1.0000 </r>
       <r>   -8.5542    1.0000 </r>
       <r>   -8.5114    1.0000 </r>
       <r>   -8.4455    1.0000 </r>
       <r>   -8.4453    1.0000 </r>
       <r>   -8.4205    1.0000 </r>
       <r>   -8.3498    1.0000 </r>
       <r>   -8.3497    1.0000 </r>
       <r>   -8.2456    1.0000 </r>
       <r>   -8.2455    1.0000 </r>
       <r>   -8.2018    1.0000 </r>
       <r>   -8.1553    1.0000 </r>
       <r>   -8.1553    1.0000 </r>
       <r>   -8.0535    1.0000 </r>
       <r>   -8.0533    1.0000 </r>
       <r>   -8.0478    1.0000 </r>
       <r>   -8.0144    1.0000 </r>
       <r>   -8.0143    1.0000 </r>
       <r>   -7.7896    1.0000 </r>
       <r>   -7.7894    1.0000 </r>
       <r>   -7.7660    1.0000 </r>
       <r>   -6.9285    1.0000 </r>
       <r>   -6.8858    1.0000 </r>
       <r>   -6.8857    1.0000 </r>
       <r>   -6.3660    1.0000 </r>
       <r>   -6.3656    1.0000 </r>
       <r>   -6.3489    1.0000 </r>
       <r>   -6.3460    1.0000 </r>
       <r>   -6.3459    1.0000 </r>
       <r>   -6.3211    1.0000 </r>
       <r>   -6.2746    1.0000 </r>
       <r>   -6.2744    1.0000 </r>
       <r>   -6.2584    1.0000 </r>
       <r>   -6.2515    1.0000 </r>
       <r>   -6.0988    1.0000 </r>
       <r>   -6.0987    1.0000 </r>
       <r>   -6.0703    1.0000 </r>
       <r>   -5.9626    1.0000 </r>
       <r>   -5.9625    1.0000 </r>
       <r>   -5.8638    1.0000 </r>
       <r>   -5.8632    1.0000 </r>
       <r>   -5.8209    1.0000 </r>
       <r>   -5.8203    1.0000 </r>
       <r>   -5.4441    1.0000 </r>
       <r>   -5.4420    1.0000 </r>
       <r>   -5.4419    1.0000 </r>
       <r>   -2.6938    0.0000 </r>
       <r>   -2.6936    0.0000 </r>
       <r>   -2.6333    0.0000 </r>
       <r>   -2.6332    0.0000 </r>
       <r>   -2.2104    0.0000 </r>
       <r>   -2.2063    0.0000 </r>
       <r>   -2.2062    0.0000 </r>
       <r>   -1.5833    0.0000 </r>
       <r>   -1.5108    0.0000 </r>
       <r>   -1.5108    0.0000 </r>
       <r>   -1.5097    0.0000 </r>
       <r>   -1.4735    0.0000 </r>
       <r>   -1.1729    0.0000 </r>
       <r>   -1.1724    0.0000 </r>
       <r>   -1.1643    0.0000 </r>
       <r>   -1.0336    0.0000 </r>
       <r>   -1.0333    0.0000 </r>
       <r>   -1.0235    0.0000 </r>
       <r>   -0.3919    0.0000 </r>
       <r>   -0.3115    0.0000 </r>
       <r>   -0.3113    0.0000 </r>
       <r>   -0.1936    0.0000 </r>
       <r>   -0.1376    0.0000 </r>
       <r>   -0.1375    0.0000 </r>
       <r>   -0.1157    0.0000 </r>
       <r>   -0.1155    0.0000 </r>
       <r>   -0.0067    0.0000 </r>
       <r>   -0.0065    0.0000 </r>
       <r>    0.2314    0.0000 </r>
       <r>    0.2608    0.0000 </r>
       <r>    0.2769    0.0000 </r>
       <r>    0.2772    0.0000 </r>
       <r>    0.3380    0.0000 </r>
       <r>    0.3460    0.0000 </r>
       <r>    0.3461    0.0000 </r>
       <r>    0.4212    0.0000 </r>
       <r>    0.4768    0.0000 </r>
       <r>    0.5084    0.0000 </r>
       <r>    0.5086    0.0000 </r>
       <r>    0.5311    0.0000 </r>
       <r>    0.5649    0.0000 </r>
       <r>    0.5949    0.0000 </r>
       <r>    0.5953    0.0000 </r>
       <r>    0.7168    0.0000 </r>
       <r>    0.7178    0.0000 </r>
       <r>    0.7563    0.0000 </r>
       <r>    0.7563    0.0000 </r>
       <r>    0.7874    0.0000 </r>
       <r>    0.8368    0.0000 </r>
       <r>    0.8550    0.0000 </r>
       <r>    0.8754    0.0000 </r>
       <r>    0.8759    0.0000 </r>
       <r>    0.8855    0.0000 </r>
       <r>    0.8920    0.0000 </r>
       <r>    0.9729    0.0000 </r>
       <r>    0.9742    0.0000 </r>
       <r>    0.9968    0.0000 </r>
       <r>    1.0348    0.0000 </r>
       <r>    1.0354    0.0000 </r>
       <r>    1.0794    0.0000 </r>
       <r>    1.0815    0.0000 </r>
       <r>    1.0818    0.0000 </r>
      </set>
      <set comment="kpoint 2">
       <r>  -25.2946    1.0000 </r>
       <r>  -25.2624    1.0000 </r>
       <r>  -24.3554    1.0000 </r>
       <r>  -24.3553    1.0000 </r>
       <r>  -24.3551    1.0000 </r>
       <r>  -22.5057    1.0000 </r>
       <r>  -22.5056    1.0000 </r>
       <r>  -22.4976    1.0000 </r>
       <r>  -22.3715    1.0000 </r>
       <r>  -22.3711    1.0000 </r>
       <r>  -22.3368    1.0000 </r>
       <r>  -22.3365    1.0000 </r>
       <r>  -21.3479    1.0000 </r>
       <r>  -21.2855    1.0000 </r>
       <r>  -21.2847    1.0000 </r>
       <r>  -21.2736    1.0000 </r>
       <r>  -21.2048    1.0000 </r>
       <r>  -21.2047    1.0000 </r>
       <r>  -19.9791    1.0000 </r>
       <r>  -19.9791    1.0000 </r>
       <r>  -19.9621    1.0000 </r>
       <r>  -19.1664    1.0000 </r>
       <r>  -19.1662    1.0000 </r>
       <r>  -18.9943    1.0000 </r>
       <r>  -18.6148    1.0000 </r>
       <r>  -18.6144    1.0000 </r>
       <r>  -18.4434    1.0000 </r>
       <r>  -18.4128    1.0000 </r>
       <r>  -18.4122    1.0000 </r>
       <r>  -18.3963    1.0000 </r>
       <r>  -18.3511    1.0000 </r>
       <r>  -18.3506    1.0000 </r>
       <r>  -18.3323    1.0000 </r>
       <r>  -17.5598    1.0000 </r>
       <r>  -17.5598    1.0000 </r>
       <r>  -17.4475    1.0000 </r>
       <r>  -17.1511    1.0000 </r>
       <r>  -17.1502    1.0000 </r>
       <r>  -16.4739    1.0000 </r>
       <r>  -16.4023    1.0000 </r>
       <r>  -16.3938    1.0000 </r>
       <r>  -15.6143    1.0000 </r>
       <r>  -15.6130    1.0000 </r>
       <r>  -15.4066    1.0000 </r>
       <r>  -15.2571    1.0000 </r>
       <r>  -15.2569    1.0000 </r>
       <r>  -15.1599    1.0000 </r>
       <r>  -15.1160    1.0000 </r>
       <r>  -15.0145    1.0000 </r>
       <r>  -14.8617    1.0000 </r>
       <r>  -14.8614    1.0000 </r>
       <r>  -14.7647    1.0000 </r>
       <r>  -14.7645    1.0000 </r>
       <r>  -14.4678    1.0000 </r>
       <r>  -14.1602    1.0000 </r>
       <r>  -14.1599    1.0000 </r>
       <r>  -13.9911    1.0000 </r>
       <r>  -13.9909    1.0000 </r>
       <r>  -13.2428    1.0000 </r>
       <r>  -13.2321    1.0000 </r>
       <r>  -13.2006    1.0000 </r>
       <r>  -13.1818    1.0000 </r>
       <r>  -12.9142    1.0000 </r>
       <r>  -12.9142    1.0000 </r>
       <r>  -12.8836    1.0000 </r>
       <r>  -12.7170    1.0000 </r>
       <r>  -12.7167    1.0000 </r>
       <r>  -12.4826    1.0000 </r>
       <r>  -12.4821    1.0000 </r>
       <r>  -12.3485    1.0000 </r>
       <r>  -11.8209    1.0000 </r>
       <r>  -11.5639    1.0000 </r>
       <r>  -11.5630    1.0000 </r>
       <r>  -11.3778    1.0000 </r>
       <r>  -11.3777    1.0000 </r>
       <r>  -11.1574    1.0000 </r>
       <r>  -11.1223    1.0000 </r>
       <r>  -11.0981    1.0000 </r>
       <r>  -11.0586    1.0000 </r>
       <r>  -11.0582    1.0000 </r>
       <r>  -10.9564    1.0000 </r>
       <r>  -10.9562    1.0000 </r>
       <r>  -10.8152    1.0000 </r>
       <r>  -10.7972    1.0000 </r>
       <r>  -10.6886    1.0000 </r>
       <r>  -10.6844    1.0000 </r>
       <r>  -10.6823    1.0000 </r>
       <r>  -10.4449    1.0000 </r>
       <r>  -10.4447    1.0000 </r>
       <r>  -10.3899    1.0000 </r>
       <r>  -10.3898    1.0000 </r>
       <r>  -10.3860    1.0000 </r>
       <r>  -10.3637    1.0000 </r>
       <r>  -10.1546    1.0000 </r>
       <r>  -10.1539    1.0000 </r>
       <r>  -10.0987    1.0000 </r>
       <r>  -10.0982    1.0000 </r>
       <r>  -10.0675    1.0000 </r>
       <r>  -10.0319    1.0000 </r>
       <r>   -9.9452    1.0000 </r>
       <r>   -9.9084    1.0000 </r>
       <r>   -9.9038    1.0000 </r>
       <r>   -9.5004    1.0000 </r>
       <r>   -9.5003    1.0000 </r>
       <r>   -9.4747    1.0000 </r>
       <r>   -9.4746    1.0000 </r>
       <r>   -9.4722    1.0000 </r>
       <r>   -9.4664    1.0000 </r>
       <r>   -9.4662    1.0000 </r>
       <r>   -9.4000    1.0000 </r>
       <r>   -9.3650    1.0000 </r>
       <r>   -9.3647    1.0000 </r>
       <r>   -9.2435    1.0000 </r>
       <r>   -9.2432    1.0000 </r>
       <r>   -8.9184    1.0000 </r>
       <r>   -8.8499    1.0000 </r>
       <r>   -8.7679    1.0000 </r>
       <r>   -8.5542    1.0000 </r>
       <r>   -8.5114    1.0000 </r>
       <r>   -8.4479    1.0000 </r>
       <r>   -8.4454    1.0000 </r>
       <r>   -8.4184    1.0000 </r>
       <r>   -8.3497    1.0000 </r>
       <r>   -8.3496    1.0000 </r>
       <r>   -8.2456    1.0000 </r>
       <r>   -8.2455    1.0000 </r>
       <r>   -8.2021    1.0000 </r>
       <r>   -8.1553    1.0000 </r>
       <r>   -8.1549    1.0000 </r>
       <r>   -8.0535    1.0000 </r>
       <r>   -8.0533    1.0000 </r>
       <r>   -8.0479    1.0000 </r>
       <r>   -8.0144    1.0000 </r>
       <r>   -8.0143    1.0000 </r>
       <r>   -7.7895    1.0000 </r>
       <r>   -7.7894    1.0000 </r>
       <r>   -7.7660    1.0000 </r>
       <r>   -6.9285    1.0000 </r>
       <r>   -6.8859    1.0000 </r>
       <r>   -6.8857    1.0000 </r>
       <r>   -6.3661    1.0000 </r>
       <r>   -6.3656    1.0000 </r>
       <r>   -6.3491    1.0000 </r>
       <r>   -6.3460    1.0000 </r>
       <r>   -6.3458    1.0000 </r>
       <r>   -6.3211    1.0000 </r>
       <r>   -6.2747    1.0000 </r>
       <r>   -6.2744    1.0000 </r>
       <r>   -6.2582    1.0000 </r>
       <r>   -6.2516    1.0000 </r>
       <r>   -6.0998    1.0000 </r>
       <r>   -6.0987    1.0000 </r>
       <r>   -6.0694    1.0000 </r>
       <r>   -5.9626    1.0000 </r>
       <r>   -5.9625    1.0000 </r>
       <r>   -5.8638    1.0000 </r>
       <r>   -5.8632    1.0000 </r>
       <r>   -5.8209    1.0000 </r>
       <r>   -5.8203    1.0000 </r>
       <r>   -5.4441    1.0000 </r>
       <r>   -5.4420    1.0000 </r>
       <r>   -5.4419    1.0000 </r>
       <r>   -2.6938    0.0000 </r>
       <r>   -2.6936    0.0000 </r>
       <r>   -2.6333    0.0000 </r>
       <r>   -2.6332    0.0000 </r>
       <r>   -2.2104    0.0000 </r>
       <r>   -2.2063    0.0000 </r>
       <r>   -2.2063    0.0000 </r>
       <r>   -1.5832    0.0000 </r>
       <r>   -1.5108    0.0000 </r>
       <r>   -1.5108    0.0000 </r>
       <r>   -1.5097    0.0000 </r>
       <r>   -1.4737    0.0000 </r>
       <r>   -1.1729    0.0000 </r>
       <r>   -1.1724    0.0000 </r>
       <r>   -1.1643    0.0000 </r>
       <r>   -1.0336    0.0000 </r>
       <r>   -1.0333    0.0000 </r>
       <r>   -1.0235    0.0000 </r>
       <r>   -0.3919    0.0000 </r>
       <r>   -0.3115    0.0000 </r>
       <r>   -0.3113    0.0000 </r>
       <r>   -0.1939    0.0000 </r>
       <r>   -0.1376    0.0000 </r>
       <r>   -0.1372    0.0000 </r>
       <r>   -0.1157    0.0000 </r>
       <r>   -0.1154    0.0000 </r>
       <r>   -0.0066    0.0000 </r>
       <r>   -0.0062    0.0000 </r>
       <r>    0.2313    0.0000 </r>
       <r>    0.2599    0.0000 </r>
       <r>    0.2754    0.0000 </r>
       <r>    0.2771    0.0000 </r>
       <r>    0.3349    0.0000 </r>
       <r>    0.3466    0.0000 </r>
       <r>    0.3509    0.0000 </r>
       <r>    0.4210    0.0000 </r>
       <r>    0.4762    0.0000 </r>
       <r>    0.5084    0.0000 </r>
       <r>    0.5088    0.0000 </r>
       <r>    0.5322    0.0000 </r>
       <r>    0.5649    0.0000 </r>
       <r>    0.5950    0.0000 </r>
       <r>    0.5963    0.0000 </r>
       <r>    0.7165    0.0000 </r>
       <r>    0.7174    0.0000 </r>
       <r>    0.7558    0.0000 </r>
       <r>    0.7566    0.0000 </r>
       <r>    0.7876    0.0000 </r>
       <r>    0.8353    0.0000 </r>
       <r>    0.8553    0.0000 </r>
       <r>    0.8755    0.0000 </r>
       <r>    0.8780    0.0000 </r>
       <r>    0.8859    0.0000 </r>
       <r>    0.8916    0.0000 </r>
       <r>    0.9730    0.0000 </r>
       <r>    0.9743    0.0000 </r>
       <r>    0.9933    0.0000 </r>
       <r>    1.0337    0.0000 </r>
       <r>    1.0370    0.0000 </r>
       <r>    1.0792    0.0000 </r>
       <r>    1.0807    0.0000 </r>
       <r>    1.0820    0.0000 </r>
      </set>
      <set comment="kpoint 3">
       <r>  -25.2946    1.0000 </r>
       <r>  -25.2624    1.0000 </r>
       <r>  -24.3554    1.0000 </r>
       <r>  -24.3553    1.0000 </r>
       <r>  -24.3551    1.0000 </r>
       <r>  -22.5057    1.0000 </r>
       <r>  -22.5056    1.0000 </r>
       <r>  -22.4976    1.0000 </r>
       <r>  -22.3714    1.0000 </r>
       <r>  -22.3710    1.0000 </r>
       <r>  -22.3368    1.0000 </r>
       <r>  -22.3365    1.0000 </r>
       <r>  -21.3478    1.0000 </r>
       <r>  -21.2868    1.0000 </r>
       <r>  -21.2847    1.0000 </r>
       <r>  -21.2722    1.0000 </r>
       <r>  -21.2049    1.0000 </r>
       <r>  -21.2047    1.0000 </r>
       <r>  -19.9791    1.0000 </r>
       <r>  -19.9790    1.0000 </r>
       <r>  -19.9622    1.0000 </r>
       <r>  -19.1664    1.0000 </r>
       <r>  -19.1656    1.0000 </r>
       <r>  -18.9955    1.0000 </r>
       <r>  -18.6148    1.0000 </r>
       <r>  -18.6129    1.0000 </r>
       <r>  -18.4434    1.0000 </r>
       <r>  -18.4130    1.0000 </r>
       <r>  -18.4124    1.0000 </r>
       <r>  -18.3963    1.0000 </r>
       <r>  -18.3513    1.0000 </r>
       <r>  -18.3506    1.0000 </r>
       <r>  -18.3326    1.0000 </r>
       <r>  -17.5598    1.0000 </r>
       <r>  -17.5596    1.0000 </r>
       <r>  -17.4487    1.0000 </r>
       <r>  -17.1511    1.0000 </r>
       <r>  -17.1475    1.0000 </r>
       <r>  -16.4921    1.0000 </r>
       <r>  -16.4023    1.0000 </r>
       <r>  -16.3753    1.0000 </r>
       <r>  -15.6182    1.0000 </r>
       <r>  -15.6130    1.0000 </r>
       <r>  -15.4056    1.0000 </r>
       <r>  -15.2574    1.0000 </r>
       <r>  -15.2569    1.0000 </r>
       <r>  -15.1599    1.0000 </r>
       <r>  -15.1160    1.0000 </r>
       <r>  -15.0123    1.0000 </r>
       <r>  -14.8616    1.0000 </r>
       <r>  -14.8614    1.0000 </r>
       <r>  -14.7647    1.0000 </r>
       <r>  -14.7642    1.0000 </r>
       <r>  -14.4699    1.0000 </r>
       <r>  -14.1602    1.0000 </r>
       <r>  -14.1587    1.0000 </r>
       <r>  -13.9914    1.0000 </r>
       <r>  -13.9910    1.0000 </r>
       <r>  -13.2428    1.0000 </r>
       <r>  -13.2321    1.0000 </r>
       <r>  -13.2006    1.0000 </r>
       <r>  -13.1818    1.0000 </r>
       <r>  -12.9142    1.0000 </r>
       <r>  -12.9142    1.0000 </r>
       <r>  -12.8836    1.0000 </r>
       <r>  -12.7170    1.0000 </r>
       <r>  -12.7167    1.0000 </r>
[...]
       <r>   -22.4541    62.0246    16.0000 </r>
       <r>   -22.3574    40.3019    19.8986 </r>
       <r>   -22.2606    41.2736    24.0000 </r>
       <r>   -22.1639     0.0000    24.0000 </r>
       <r>   -22.0672     0.0000    24.0000 </r>
       <r>   -21.9704     0.0000    24.0000 </r>
       <r>   -21.8737     0.0000    24.0000 </r>
       <r>   -21.7770     0.0000    24.0000 </r>
       <r>   -21.6802     0.0000    24.0000 </r>
       <r>   -21.5835     0.0000    24.0000 </r>
       <r>   -21.4868     0.0000    24.0000 </r>
       <r>   -21.3900     0.0000    24.0000 </r>
       <r>   -21.2933    39.9143    27.8611 </r>
       <r>   -21.1966    58.7372    35.6825 </r>
       <r>   -21.0998     0.0000    36.0000 </r>
       <r>   -21.0031     0.0000    36.0000 </r>
       <r>   -20.9063     0.0000    36.0000 </r>
       <r>   -20.8096     0.0000    36.0000 </r>
       <r>   -20.7129     0.0000    36.0000 </r>
       <r>   -20.6161     0.0000    36.0000 </r>
       <r>   -20.5194     0.0000    36.0000 </r>
       <r>   -20.4227     0.0000    36.0000 </r>
       <r>   -20.3259     0.0000    36.0000 </r>
       <r>   -20.2292     0.0000    36.0000 </r>
       <r>   -20.1325     0.0000    36.0000 </r>
       <r>   -20.0357     0.0000    36.0000 </r>
       <r>   -19.9390    62.0216    41.9997 </r>
       <r>   -19.8423     0.0000    42.0000 </r>
       <r>   -19.7455     0.0000    42.0000 </r>
       <r>   -19.6488     0.0000    42.0000 </r>
       <r>   -19.5520     0.0000    42.0000 </r>
       <r>   -19.4553     0.0000    42.0000 </r>
       <r>   -19.3586     0.0000    42.0000 </r>
       <r>   -19.2618     0.0000    42.0000 </r>
       <r>   -19.1651    13.9456    43.3490 </r>
       <r>   -19.0684    20.7721    46.6432 </r>
       <r>   -18.9716     9.6444    47.9999 </r>
       <r>   -18.8749     0.0000    48.0000 </r>
       <r>   -18.7782     0.0000    48.0000 </r>
       <r>   -18.6814     0.0000    48.0000 </r>
       <r>   -18.5847    26.4192    50.5557 </r>
       <r>   -18.4880    13.7301    52.0285 </r>
       <r>   -18.3912    74.2998    59.5212 </r>
       <r>   -18.2945    62.0215    66.0000 </r>
       <r>   -18.1977     0.0000    66.0000 </r>
       <r>   -18.1010     0.0000    66.0000 </r>
       <r>   -18.0043     0.0000    66.0000 </r>
       <r>   -17.9075     0.0000    66.0000 </r>
       <r>   -17.8108     0.0000    66.0000 </r>
       <r>   -17.7141     0.0000    66.0000 </r>
       <r>   -17.6173     0.0000    66.0000 </r>
       <r>   -17.5206    42.0494    70.0677 </r>
       <r>   -17.4239    11.7062    71.9999 </r>
       <r>   -17.3271     0.0000    72.0000 </r>
       <r>   -17.2304     0.0000    72.0000 </r>
       <r>   -17.1337    23.7022    74.2928 </r>
       <r>   -17.0369     4.0710    74.8272 </r>
       <r>   -16.9402     7.9615    75.6704 </r>
       <r>   -16.8434     5.8864    76.3695 </r>
       <r>   -16.7467     6.4217    77.1213 </r>
       <r>   -16.6500     2.1617    77.4091 </r>
       <r>   -16.5532     2.4596    77.6714 </r>
       <r>   -16.4565     3.0246    77.9928 </r>
       <r>   -16.3598    22.7677    80.2025 </r>
       <r>   -16.2630     2.2762    80.4538 </r>
       <r>   -16.1663     2.1979    80.7126 </r>
       <r>   -16.0696     2.3987    80.9987 </r>
       <r>   -15.9728     7.4457    81.7870 </r>
       <r>   -15.8761     4.9223    82.3762 </r>
       <r>   -15.7794     6.4678    83.1258 </r>
       <r>   -15.6826     2.8600    83.4767 </r>
       <r>   -15.5859    25.1532    85.9999 </r>
       <r>   -15.4891     0.0000    86.0000 </r>
       <r>   -15.3924     5.6686    86.5484 </r>
       <r>   -15.2957     0.0005    88.0000 </r>
       <r>   -15.1989    41.3493    92.0000 </r>
       <r>   -15.1022    40.8441    95.9511 </r>
       <r>   -15.0055     2.5317    96.2449 </r>
       <r>   -14.9087     8.5460    97.2601 </r>
       <r>   -14.8120    43.4119   102.0000 </r>
       <r>   -14.7153    35.8385   105.4669 </r>
       <r>   -14.6185     1.6133   106.1561 </r>
       <r>   -14.5218     9.0674   107.3776 </r>
       <r>   -14.4251     5.1683   108.0000 </r>
       <r>   -14.3283     0.0000   108.0000 </r>
       <r>   -14.2316     0.0000   108.0000 </r>
       <r>   -14.1348    26.5857   110.5718 </r>
       <r>   -14.0381    12.4082   112.0006 </r>
       <r>   -13.9414    41.3437   116.0000 </r>
       <r>   -13.8446     0.0000   116.0000 </r>
       <r>   -13.7479     0.0000   116.0000 </r>
       <r>   -13.6512     0.0000   116.0000 </r>
       <r>   -13.5544     0.0000   116.0000 </r>
       <r>   -13.4577     0.0000   116.0000 </r>
       <r>   -13.3610     0.0000   116.0000 </r>
       <r>   -13.2642     0.0208   116.0020 </r>
       <r>   -13.1675    82.2603   123.9595 </r>
       <r>   -13.0708     0.0000   124.0000 </r>
       <r>   -12.9740     0.0000   124.0000 </r>
       <r>   -12.8773    59.1898   129.7258 </r>
       <r>   -12.7805     0.0000   130.0000 </r>
       <r>   -12.6838    41.3496   134.0000 </r>
       <r>   -12.5871     0.0000   134.0000 </r>
       <r>   -12.4903    20.1495   135.9492 </r>
       <r>   -12.3936     0.0000   138.0000 </r>
       <r>   -12.2969     5.9822   138.5787 </r>
       <r>   -12.2001    13.2164   139.9785 </r>
       <r>   -12.1034     0.0000   140.0000 </r>
       <r>   -12.0067     0.0155   140.0015 </r>
       <r>   -11.9099    13.3560   141.2935 </r>
       <r>   -11.8132     6.2922   141.9755 </r>
       <r>   -11.7165     0.0000   142.0000 </r>
       <r>   -11.6197     0.0004   142.0000 </r>
       <r>   -11.5230    26.6092   144.5741 </r>
       <r>   -11.4262    12.7478   146.0000 </r>
       <r>   -11.3295    25.8886   148.5043 </r>
       <r>   -11.2328     8.9568   150.0000 </r>
       <r>   -11.1360    41.5881   154.0231 </r>
       <r>   -11.0393    34.7551   159.9961 </r>
       <r>   -10.9426    10.9256   161.0569 </r>
       <r>   -10.8458    27.1264   164.6582 </r>
       <r>   -10.7491    29.6312   168.0001 </r>
       <r>   -10.6524    50.1377   172.8502 </r>
       <r>   -10.5556     0.0000   174.0000 </r>
       <r>   -10.4589     0.3534   174.0342 </r>
       <r>   -10.3621   103.5514   185.6874 </r>
       <r>   -10.2654     0.0000   186.0000 </r>
       <r>   -10.1687     4.4138   186.4270 </r>
       <r>   -10.0719    48.2755   194.6700 </r>
       <r>    -9.9752    27.4151   199.7191 </r>
       <r>    -9.8785    25.1528   202.2334 </r>
       <r>    -9.7817     3.8934   202.6768 </r>
       <r>    -9.6850     9.7448   203.7094 </r>
       <r>    -9.5883     3.0026   204.2905 </r>
       <r>    -9.4915    31.4027   207.9714 </r>
       <r>    -9.3948   103.9288   219.9303 </r>
       <r>    -9.2981    46.4271   224.4912 </r>
       <r>    -9.2013    29.6284   228.0000 </r>
       <r>    -9.1046     0.0000   228.0000 </r>
       <r>    -9.0078     0.0000   228.0000 </r>
       <r>    -8.9111    10.4183   229.0078 </r>
       <r>    -8.8144    20.6749   232.0000 </r>
       <r>    -8.7176     7.9361   232.7677 </r>
       <r>    -8.6209    12.4895   234.1415 </r>
       <r>    -8.5242    30.9425   237.4268 </r>
       <r>    -8.4274    26.6966   242.0162 </r>
       <r>    -8.3307    35.9490   245.6777 </r>
       <r>    -8.2340    52.6446   252.1616 </r>
       <r>    -8.1372    31.6187   256.4925 </r>
       <r>    -8.0405    72.4668   263.8106 </r>
       <r>    -7.9438    41.3343   268.0000 </r>
       <r>    -7.8470     0.0000   268.0000 </r>
       <r>    -7.7503    61.9344   273.9913 </r>
       <r>    -7.6535     0.0000   274.0000 </r>
       <r>    -7.5568     0.0000   274.0000 </r>
       <r>    -7.4601     0.0000   274.0000 </r>
       <r>    -7.3633     0.0000   274.0000 </r>
       <r>    -7.2666     0.0000   274.0000 </r>
       <r>    -7.1699     0.0000   274.0000 </r>
       <r>    -7.0731     0.0000   274.0000 </r>
       <r>    -6.9764     0.0000   274.0000 </r>
       <r>    -6.8797    56.9492   279.5090 </r>
       <r>    -6.7829     0.0000   280.0000 </r>
       <r>    -6.6862     0.0000   280.0000 </r>
       <r>    -6.5895     0.0000   280.0000 </r>
       <r>    -6.4927     0.0000   280.0000 </r>
       <r>    -6.3960     0.0025   280.0002 </r>
       <r>    -6.2992   124.0720   292.0024 </r>
       <r>    -6.2025    80.6513   299.8049 </r>
       <r>    -6.1058    18.7387   302.1133 </r>
       <r>    -6.0090    14.8342   305.4350 </r>
       <r>    -5.9123    41.3467   310.0000 </r>
       <r>    -5.8156    73.1157   317.0729 </r>
       <r>    -5.7188     0.0000   318.0000 </r>
       <r>    -5.6221     0.0000   318.0000 </r>
       <r>    -5.5254     0.0000   318.0000 </r>
       <r>    -5.4286    60.5462   323.8570 </r>
       <r>    -5.3319     0.0000   324.0000 </r>
       <r>    -5.2352     0.0000   324.0000 </r>
       <r>    -5.1384     0.0000   324.0000 </r>
       <r>    -5.0417     0.0000   324.0000 </r>
       <r>    -4.9449     0.0000   324.0000 </r>
       <r>    -4.8482     0.0000   324.0000 </r>
       <r>    -4.7515     0.0000   324.0000 </r>
       <r>    -4.6547     0.0000   324.0000 </r>
       <r>    -4.5580     0.0000   324.0000 </r>
       <r>    -4.4613     0.0000   324.0000 </r>
       <r>    -4.3645     0.0000   324.0000 </r>
       <r>    -4.2678     0.0000   324.0000 </r>
       <r>    -4.1711     0.0000   324.0000 </r>
       <r>    -4.0743     0.0000   324.0000 </r>
       <r>    -3.9776     0.0000   324.0000 </r>
       <r>    -3.8809     0.0000   324.0000 </r>
       <r>    -3.7841     0.0000   324.0000 </r>
       <r>    -3.6874     0.0000   324.0000 </r>
       <r>    -3.5906     0.0000   324.0000 </r>
       <r>    -3.4939     0.0000   324.0000 </r>
       <r>    -3.3972     0.0000   324.0000 </r>
       <r>    -3.3004     0.0000   324.0000 </r>
       <r>    -3.2037     0.0000   324.0000 </r>
       <r>    -3.1070     0.0000   324.0000 </r>
       <r>    -3.0102     0.0000   324.0000 </r>
       <r>    -2.9135     0.0000   324.0000 </r>
       <r>    -2.8168     0.0000   324.0000 </r>
       <r>    -2.7200     0.0039   324.0004 </r>
       <r>    -2.6233    79.9857   331.7379 </r>
       <r>    -2.5266     0.0000   332.0000 </r>
       <r>    -2.4298     0.0000   332.0000 </r>
       <r>    -2.3331     0.0000   332.0000 </r>
       <r>    -2.2363     0.0025   332.0002 </r>
       <r>    -2.1396    62.0222   338.0000 </r>
       <r>    -2.0429     0.0000   338.0000 </r>
       <r>    -1.9461     0.0000   338.0000 </r>
       <r>    -1.8494     0.0000   338.0000 </r>
       <r>    -1.7527     0.0000   338.0000 </r>
       <r>    -1.6559     0.0000   338.0000 </r>
       <r>    -1.5592    14.1905   339.3727 </r>
       <r>    -1.4625    82.5131   347.9820 </r>
       <r>    -1.3657     0.0000   348.0000 </r>
       <r>    -1.2690     0.0000   348.0000 </r>
       <r>    -1.1723    20.7076   350.0032 </r>
       <r>    -1.0755     0.0000   354.0000 </r>
       <r>    -0.9788    62.0246   360.0000 </r>
       <r>    -0.8820     0.0000   360.0000 </r>
       <r>    -0.7853     0.0000   360.0000 </r>
       <r>    -0.6886     0.0000   360.0000 </r>
       <r>    -0.5918     0.0000   360.0000 </r>
       <r>    -0.4951     0.0000   360.0000 </r>
       <r>    -0.3984     0.9103   360.0881 </r>
       <r>    -0.3016    51.1531   365.8178 </r>
       <r>    -0.2049    14.4704   367.3998 </r>
       <r>    -0.1082    63.7532   374.1672 </r>
       <r>    -0.0114    15.5942   376.1755 </r>
       <r>     0.0853    21.1233   379.6115 </r>
       <r>     0.1820    23.8021   382.5370 </r>
       <r>     0.2788    44.9068   387.2782 </r>
       <r>     0.3755    40.8224   391.9490 </r>
       <r>     0.4723    45.4940   396.9349 </r>
       <r>     0.5690    46.0099   402.3863 </r>
       <r>     0.6657    59.2390   409.2984 </r>
       <r>     0.7625    54.7769   416.2003 </r>
       <r>     0.8592    90.3794   426.0782 </r>
       <r>     0.9559    69.3149   434.5739 </r>
       <r>     1.0527   102.0383   445.3091 </r>
       <r>     1.1494    12.7392   448.0000 </r>
       <r>     1.2461     0.0000   448.0000 </r>
       <r>     1.3429     0.0000   448.0000 </r>
       <r>     1.4396     0.0000   448.0000 </r>
       <r>     1.5363     0.0000   448.0000 </r>
       <r>     1.6331     0.0000   448.0000 </r>
       <r>     1.7298     0.0000   448.0000 </r>
       <r>     1.8266     0.0000   448.0000 </r>
       <r>     1.9233     0.0000   448.0000 </r>
       <r>     2.0200     0.0000   448.0000 </r>
       <r>     2.1168     0.0000   448.0000 </r>
       <r>     2.2135     0.0000   448.0000 </r>
       <r>     2.3102     0.0000   448.0000 </r>
       <r>     2.4070     0.0000   448.0000 </r>
      </set>
     </set>
    </array>
   </total>
  </dos>
 </calculation>
 <structure name="finalpos" >
  <crystal>
   <varray name="basis" >
    <v>      29.25250137       0.00000000       0.00000000 </v>
    <v>     -14.62625069      25.33340931       0.00000000 </v>
    <v>       0.00000000       0.00000000      20.00000000 </v>
   </varray>
   <i name="volume">  14821.31181506 </i>
   <varray name="rec_basis" >
    <v>       0.03418511       0.01973678       0.00000000 </v>
    <v>       0.00000000       0.03947357       0.00000000 </v>
    <v>       0.00000000       0.00000000       0.05000000 </v>
   </varray>
  </crystal>
  <varray name="positions" >
   <v>       0.02067246       0.51033623       0.67080622 </v>
   <v>       0.51443271       0.88160891       0.50311073 </v>
   <v>       0.46494630       0.78310259       0.50153598 </v>
   <v>       0.36717620       0.88160891       0.50311073 </v>
   <v>       0.31815629       0.78310259       0.50153598 </v>
   <v>       0.21689741       0.68184371       0.50153598 </v>
   <v>       0.11839109       0.63282380       0.50311073 </v>
   <v>       0.21689741       0.53505370       0.50153598 </v>
   <v>       0.11839109       0.48556729       0.50311073 </v>
   <v>       0.31815629       0.53505370       0.50153598 </v>
   <v>       0.36717620       0.48556729       0.50311073 </v>
   <v>       0.51443271       0.63282380       0.50311073 </v>
   <v>       0.46494630       0.68184371       0.50153598 </v>
   <v>       0.48557764       0.11842845       0.50291812 </v>
   <v>       0.53511087       0.21700911       0.50266537 </v>
   <v>       0.63285081       0.11842845       0.50291812 </v>
   <v>       0.68189824       0.21700911       0.50266537 </v>
   <v>       0.78299089       0.31810176       0.50266537 </v>
   <v>       0.88157155       0.36714919       0.50291812 </v>
   <v>       0.78299089       0.46488913       0.50266537 </v>
   <v>       0.88157155       0.51442236       0.50291812 </v>
   <v>       0.68189824       0.46488913       0.50266537 </v>
   <v>       0.63285081       0.51442236       0.50291812 </v>
   <v>       0.48557764       0.36714919       0.50291812 </v>
   <v>       0.53511087       0.31810176       0.50266537 </v>
   <v>       0.48966377       0.51033623       0.67080622 </v>
   <v>       0.43178250       0.50797676       0.63718547 </v>
   <v>       0.49202324       0.56821750       0.63718547 </v>
   <v>       0.48966377       0.97932754       0.67080622 </v>
   <v>       0.49202324       0.92380574       0.63718547 </v>
   <v>       0.43178250       0.92380574       0.63718547 </v>
   <v>       0.07619426       0.56821750       0.63718547 </v>
   <v>       0.07619426       0.50797676       0.63718547 </v>
   <v>       0.52183072       0.47816928       0.39540179 </v>
   <v>       0.52183072       0.04366144       0.39540179 </v>
   <v>       0.95633856       0.47816928       0.39540179 </v>
   <v>       0.02887988       0.51443994       0.44401942 </v>
   <v>       0.38758147       0.69379073       0.50048198 </v>
   <v>       0.30620927       0.61241853       0.50048198 </v>
   <v>       0.30620927       0.69379073       0.50048198 </v>
   <v>       0.61243592       0.30621796       0.50305993 </v>
   <v>       0.69378204       0.38756408       0.50305993 </v>
   <v>       0.69378204       0.30621796       0.50305993 </v>
   <v>       0.51449779       0.48550221       0.56326125 </v>
   <v>       0.51449779       0.02899557       0.56326125 </v>
   <v>       0.97100443       0.48550221       0.56326125 </v>
   <v>       0.48556006       0.51443994       0.44401942 </v>
   <v>       0.48556006       0.97112012       0.44401942 </v>
   <v>       0.02402048       0.51201024       0.56415920 </v>
   <v>       0.05308127       0.52654063       0.50366466 </v>
   <v>       0.05061658       0.52530829       0.63128029 </v>
   <v>       0.35927324       0.71854649       0.50060276 </v>
   <v>       0.35927324       0.64072676       0.50060276 </v>
   <v>       0.28145351       0.64072676       0.50060276 </v>
   <v>       0.38849076       0.61150924       0.50151620 </v>
   <v>       0.44393805       0.63885338       0.50206622 </v>
   <v>       0.47135559       0.61133416       0.50307522 </v>
   <v>       0.44403070       0.55596930       0.50340367 </v>
   <v>       0.38866584       0.52864441       0.50307522 </v>
   <v>       0.36114662       0.55606195       0.50206622 </v>
   <v>       0.38849076       0.77698152       0.50151620 </v>
   <v>       0.44393805       0.80508467       0.50206622 </v>
   <v>       0.47135559       0.86002143       0.50307522 </v>
   <v>       0.44403070       0.88806141       0.50340367 </v>
   <v>       0.38866584       0.86002143       0.50307522 </v>
   <v>       0.36114662       0.80508467       0.50206622 </v>
   <v>       0.22301848       0.61150924       0.50151620 </v>
   <v>       0.19491533       0.63885338       0.50206622 </v>
   <v>       0.13997857       0.61133416       0.50307522 </v>
   <v>       0.11193859       0.55596930       0.50340367 </v>
   <v>       0.13997857       0.52864441       0.50307522 </v>
   <v>       0.19491533       0.55606195       0.50206622 </v>
   <v>       0.64073632       0.28147265       0.50302369 </v>
   <v>       0.64073632       0.35926368       0.50302369 </v>
   <v>       0.71852735       0.35926368       0.50302369 </v>
   <v>       0.61153299       0.38846701       0.50274434 </v>
   <v>       0.55609291       0.36110336       0.50262787 </v>
   <v>       0.52865666       0.38861937       0.50265503 </v>
   <v>       0.55601705       0.44398295       0.50286050 </v>
   <v>       0.61138063       0.47134334       0.50265503 </v>
   <v>       0.63889664       0.44390709       0.50262787 </v>
   <v>       0.61153299       0.22306598       0.50274434 </v>
   <v>       0.55609291       0.19498955       0.50262787 </v>
   <v>       0.52865666       0.14003729       0.50265503 </v>
   <v>       0.55601705       0.11203410       0.50286050 </v>
   <v>       0.61138063       0.14003729       0.50265503 </v>
   <v>       0.63889664       0.19498955       0.50262787 </v>
   <v>       0.77693402       0.38846701       0.50274434 </v>
   <v>       0.80501045       0.36110336       0.50262787 </v>
   <v>       0.85996271       0.38861937       0.50265503 </v>
   <v>       0.88796590       0.44398295       0.50286050 </v>
   <v>       0.85996271       0.47134334       0.50265503 </v>
   <v>       0.80501045       0.44390709       0.50262787 </v>
   <v>       0.48798976       0.51201024       0.56415920 </v>
   <v>       0.47345937       0.52654063       0.50366466 </v>
   <v>       0.47469171       0.52530829       0.63128029 </v>
   <v>       0.48798976       0.97597952       0.56415920 </v>
   <v>       0.47345937       0.94691873       0.50366466 </v>
   <v>       0.47469171       0.94938342       0.63128029 </v>
   <v>       0.52662483       0.47337517       0.50345506 </v>
   <v>       0.51199082       0.48800918       0.44404357 </v>
   <v>       0.52662483       0.05324965       0.50345506 </v>
   <v>       0.51199082       0.02398164       0.44404357 </v>
   <v>       0.94675035       0.47337517       0.50345506 </v>
   <v>       0.97601836       0.48800918       0.44404357 </v>
  </varray>
 </structure>
</modeling>
