<?xml version="1.0" encoding="ISO-8859-1"?>
<modeling>
 <generator>
  <i name="program" type="string">vasp </i>
  <i name="version" type="string">5.4.4.18Apr17-6-g9f103f2a35  </i>
  <i name="subversion" type="string">(build Jun 07 2020 16:50:00) complex            parallel </i>
  <i name="platform" type="string">LinuxIFC </i>
  <i name="date" type="string">2023 02 19 </i>
  <i name="time" type="string">13:11:44 </i>
 </generator>
 <incar>
  <i type="string" name="SYSTEM">Simulation for cell shape cell volume r</i>
  <i type="int" name="ISTART">     1</i>
  <i type="string" name="PREC">high</i>
  <i type="string" name="ALGO">48</i>
  <i type="int" name="ICHARG">    11</i>
  <i type="int" name="NELM">   200</i>
  <i type="int" name="IBRION">    -1</i>
  <i name="EDIFF">      0.00001000</i>
  <i name="EDIFFG">     -0.01000000</i>
  <i type="int" name="NSW">     0</i>
  <i type="int" name="ISIF">     2</i>
  <i name="ENCUT">    500.00000000</i>
  <i name="POTIM">      0.30000000</i>
  <i type="string" name="LREAL">A</i>
  <i type="int" name="ISMEAR">     0</i>
  <i name="SIGMA">      0.01000000</i>
  <i type="int" name="NWRITE">     0</i>
  <i type="logical" name="LWAVE"> F  </i>
  <i type="logical" name="LCHARG"> F  </i>
  <v type="int" name="KPOINT_BSE">    -1     0     0     0</v>
  <i type="int" name="NELM">   200</i>
  <i type="string" name="GGA">PE</i>
 </incar>
 <structure name="primitive_cell" >
  <crystal>
   <varray name="basis" >
    <v>      28.87384308      -0.08265273       0.00000000 </v>
    <v>     -14.50915880      25.00881980       0.00000000 </v>
    <v>       0.00000000       0.00000000      20.00000000 </v>
   </varray>
   <i name="volume">  14418.03034043 </i>
   <varray name="rec_basis" >
    <v>       0.03469104       0.02012641       0.00000000 </v>
    <v>       0.00011465       0.04005241       0.00000000 </v>
    <v>       0.00000000       0.00000000       0.05000000 </v>
   </varray>
  </crystal>
  <varray name="positions" >
   <v>      -0.28497579       0.37097963       0.44229058 </v>
   <v>      -0.29387650       0.32098455       0.44076173 </v>
   <v>      -0.32358743       0.38415513       0.44398051 </v>
   <v>      -0.22801880       0.41666284       0.44351717 </v>
   <v>      -0.22245157       0.43764155       0.49196301 </v>
   <v>      -0.22403032       0.44577174       0.40478203 </v>
   <v>      -0.34596260       0.28223986       0.44159724 </v>
   <v>      -0.37374373       0.34278582       0.44428896 </v>
   <v>      -0.19044165       0.39850239       0.43463900 </v>
   <v>      -0.20747213       0.35794128       0.43546697 </v>
   <v>      -0.38721685       0.29086326       0.44300520 </v>
   <v>      -0.35997984       0.43369694       0.44160885 </v>
   <v>      -0.35748331       0.22542466       0.44226156 </v>
   <v>      -0.41920524       0.35393822       0.44755971 </v>
   <v>      -0.13729602       0.42895722       0.45315068 </v>
   <v>      -0.33369983       0.22122372       0.40183332 </v>
   <v>      -0.34037310       0.22022107       0.48951106 </v>
   <v>      -0.40060853       0.40999321       0.44035318 </v>
   <v>      -0.13423659      -0.49461866       0.46520215 </v>
   <v>      -0.43989503       0.33764819       0.49603609 </v>
   <v>      -0.44872952       0.32935859       0.40873298 </v>
   <v>      -0.11215398       0.48398593       0.46794801 </v>
   <v>      -0.43736652       0.20458735       0.43893441 </v>
   <v>      -0.41378927       0.18780282       0.43613138 </v>
   <v>      -0.10502015       0.40507297       0.45709572 </v>
   <v>      -0.12285578       0.36234342       0.44550447 </v>
   <v>      -0.43111618       0.43232392       0.45879779 </v>
   <v>      -0.36423129      -0.48608786       0.45201930 </v>
   <v>      -0.05833492      -0.48878801       0.48607095 </v>
   <v>      -0.43604821       0.13448264       0.45288623 </v>
   <v>      -0.40712871       0.48865177       0.46304453 </v>
   <v>      -0.05364151       0.43104484       0.47428684 </v>
   <v>      -0.36183861       0.13239499       0.46129105 </v>
   <v>       0.49231289       0.35829673       0.47052035 </v>
   <v>      -0.48629916       0.40193084       0.47316601 </v>
   <v>      -0.02976156       0.48380530       0.48916761 </v>
   <v>      -0.03762303      -0.44624935       0.49811905 </v>
   <v>      -0.40548667       0.10979693       0.46496343 </v>
   <v>       0.48216433       0.11894439       0.44808584 </v>
   <v>      -0.49241208       0.10151383       0.45778921 </v>
   <v>      -0.43322100      -0.48621835       0.47976648 </v>
   <v>       0.48633874       0.42823295       0.49074804 </v>
   <v>       0.02739093      -0.48863158      -0.49137638 </v>
   <v>      -0.43161814       0.05579168       0.48171921 </v>
   <v>      -0.48621477       0.48441228       0.49381356 </v>
   <v>       0.48260197       0.04994664       0.47372499 </v>
   <v>       0.44365545       0.40603286      -0.49765733 </v>
   <v>       0.03548234       0.44156495       0.49940134 </v>
   <v>      -0.40924974       0.03544603       0.49175404 </v>
   <v>       0.05118996      -0.43587093      -0.47652137 </v>
   <v>      -0.48781367       0.02655614       0.48618150 </v>
   <v>       0.05610680       0.48409382      -0.48851172 </v>
   <v>       0.48600124      -0.48629393      -0.48768764 </v>
   <v>      -0.44398428      -0.40788421      -0.49661760 </v>
   <v>       0.10262230      -0.40975947      -0.45962114 </v>
   <v>       0.48319478      -0.03071358      -0.49515815 </v>
   <v>       0.10999639      -0.48852819      -0.47066704 </v>
   <v>      -0.48666873      -0.43010692      -0.48502016 </v>
   <v>       0.43302859       0.48430248      -0.47351773 </v>
   <v>       0.12039856      -0.36703491      -0.44804129 </v>
   <v>       0.13506274      -0.43348828      -0.45596936 </v>
   <v>      -0.48707738      -0.05380391      -0.48185351 </v>
   <v>       0.40446288      -0.04013613       0.49790853 </v>
   <v>       0.13221136       0.49020225      -0.46816319 </v>
   <v>       0.42698730      -0.06018175      -0.49115700 </v>
   <v>       0.48583960      -0.40381324      -0.46799240 </v>
   <v>       0.40684063      -0.49058572      -0.45722728 </v>
   <v>       0.48814809      -0.10519027      -0.46516074 </v>
   <v>       0.18824080      -0.40280414      -0.43778355 </v>
   <v>      -0.49286948      -0.36016755      -0.46570758 </v>
   <v>       0.43063997      -0.43424997      -0.45372767 </v>
   <v>       0.36397526       0.48410817      -0.44603222 </v>
   <v>       0.40104334      -0.11402358      -0.47354697 </v>
   <v>       0.20525874      -0.36225057      -0.43943866 </v>
   <v>      -0.48627560      -0.12235317      -0.45485163 </v>
   <v>       0.22078414      -0.44209427      -0.49387275 </v>
   <v>       0.43182072      -0.13827032      -0.46011136 </v>
   <v>       0.22594808      -0.42092972      -0.44564920 </v>
   <v>       0.35738865      -0.13683450      -0.47017473 </v>
   <v>       0.22178915      -0.44982465      -0.40652268 </v>
   <v>       0.39986221      -0.41202001      -0.43612861 </v>
   <v>       0.35926906      -0.43608204      -0.43730897 </v>
   <v>       0.43877702      -0.34051228      -0.49337660 </v>
   <v>       0.40987695      -0.19123915      -0.44184041 </v>
   <v>       0.28279067      -0.37499699      -0.44415553 </v>
   <v>       0.41779248      -0.35624136      -0.44492678 </v>
   <v>       0.44685316      -0.33078706      -0.40616592 </v>
   <v>       0.29111975      -0.32520873      -0.44501533 </v>
   <v>       0.43384659      -0.20764160      -0.44313261 </v>
   <v>       0.33696602      -0.22545411      -0.49652544 </v>
   <v>       0.35378050      -0.22949345      -0.44836461 </v>
   <v>       0.32935758      -0.22495908      -0.40910464 </v>
   <v>       0.32182257      -0.38760797      -0.44328193 </v>
   <v>       0.34300411      -0.28602758      -0.44536094 </v>
   <v>       0.37178264      -0.34581915      -0.44373196 </v>
   <v>       0.38463478      -0.29406053      -0.44443099 </v>
  </varray>
 </structure>
 <varray name="primitive_index" >
  <v type="int" >        1 </v>
  <v type="int" >       81 </v>
  <v type="int" >       79 </v>
  <v type="int" >        5 </v>
  <v type="int" >       45 </v>
  <v type="int" >       63 </v>
  <v type="int" >        3 </v>
  <v type="int" >        2 </v>
  <v type="int" >       94 </v>
  <v type="int" >       74 </v>
  <v type="int" >       80 </v>
  <v type="int" >       70 </v>
  <v type="int" >        4 </v>
  <v type="int" >       26 </v>
  <v type="int" >       36 </v>
  <v type="int" >       62 </v>
  <v type="int" >       44 </v>
  <v type="int" >       92 </v>
  <v type="int" >       54 </v>
  <v type="int" >       43 </v>
  <v type="int" >       61 </v>
  <v type="int" >       20 </v>
  <v type="int" >       78 </v>
  <v type="int" >       96 </v>
  <v type="int" >       37 </v>
  <v type="int" >       71 </v>
  <v type="int" >       31 </v>
  <v type="int" >       67 </v>
  <v type="int" >       19 </v>
  <v type="int" >       41 </v>
  <v type="int" >       32 </v>
  <v type="int" >       93 </v>
  <v type="int" >       58 </v>
  <v type="int" >       50 </v>
  <v type="int" >       15 </v>
  <v type="int" >       35 </v>
  <v type="int" >       53 </v>
  <v type="int" >       25 </v>
  <v type="int" >       75 </v>
  <v type="int" >       42 </v>
  <v type="int" >       91 </v>
  <v type="int" >       14 </v>
  <v type="int" >       17 </v>
  <v type="int" >       24 </v>
  <v type="int" >       30 </v>
  <v type="int" >       95 </v>
  <v type="int" >       49 </v>
  <v type="int" >       73 </v>
  <v type="int" >       57 </v>
  <v type="int" >       87 </v>
  <v type="int" >       40 </v>
  <v type="int" >       34 </v>
  <v type="int" >       12 </v>
  <v type="int" >       69 </v>
  <v type="int" >       18 </v>
  <v type="int" >       22 </v>
  <v type="int" >       33 </v>
  <v type="int" >       29 </v>
  <v type="int" >       85 </v>
  <v type="int" >       55 </v>
  <v type="int" >       16 </v>
  <v type="int" >       89 </v>
  <v type="int" >       77 </v>
  <v type="int" >       72 </v>
  <v type="int" >       39 </v>
  <v type="int" >       28 </v>
  <v type="int" >       13 </v>
  <v type="int" >       23 </v>
  <v type="int" >       88 </v>
  <v type="int" >       68 </v>
  <v type="int" >       11 </v>
  <v type="int" >       51 </v>
  <v type="int" >       38 </v>
  <v type="int" >       56 </v>
  <v type="int" >       59 </v>
  <v type="int" >       66 </v>
  <v type="int" >       21 </v>
  <v type="int" >       10 </v>
  <v type="int" >       76 </v>
  <v type="int" >       48 </v>
  <v type="int" >       86 </v>
  <v type="int" >       52 </v>
  <v type="int" >       64 </v>
  <v type="int" >       90 </v>
  <v type="int" >        6 </v>
  <v type="int" >       27 </v>
  <v type="int" >       46 </v>
  <v type="int" >       84 </v>
  <v type="int" >       60 </v>
  <v type="int" >       65 </v>
  <v type="int" >        9 </v>
  <v type="int" >       47 </v>
  <v type="int" >       82 </v>
  <v type="int" >        8 </v>
  <v type="int" >        7 </v>
  <v type="int" >       83 </v>
 </varray>
 <kpoints>
  <generation param="listgenerated">
   <i name="divisions" type="int">      20 </i>
   <v>       0.00000000       0.00000000       0.00000000 </v>
   <v>       0.50000000      -0.50000000       0.00000000 </v>
   <v>       0.66716316      -0.33192504       0.00000000 </v>
   <v>       0.50000000       0.00000000       0.00000000 </v>
   <v>       0.33283683       0.33192504       0.00000000 </v>
   <v>       0.00000000       0.50000000       0.00000000 </v>
   <v>       0.00000000       0.00000000       0.00000000 </v>
  </generation>
  <varray name="kpointlist" >
   <v>       0.00000000       0.00000000       0.00000000 </v>
   <v>       0.02631579      -0.02631579       0.00000000 </v>
   <v>       0.05263158      -0.05263158       0.00000000 </v>
   <v>       0.07894737      -0.07894737       0.00000000 </v>
   <v>       0.10526316      -0.10526316       0.00000000 </v>
   <v>       0.13157895      -0.13157895       0.00000000 </v>
   <v>       0.15789474      -0.15789474       0.00000000 </v>
   <v>       0.18421053      -0.18421053       0.00000000 </v>
   <v>       0.21052632      -0.21052632       0.00000000 </v>
   <v>       0.23684211      -0.23684211       0.00000000 </v>
   <v>       0.26315789      -0.26315789       0.00000000 </v>
   <v>       0.28947368      -0.28947368       0.00000000 </v>
   <v>       0.31578947      -0.31578947       0.00000000 </v>
   <v>       0.34210526      -0.34210526       0.00000000 </v>
   <v>       0.36842105      -0.36842105       0.00000000 </v>
   <v>       0.39473684      -0.39473684       0.00000000 </v>
   <v>       0.42105263      -0.42105263       0.00000000 </v>
   <v>       0.44736842      -0.44736842       0.00000000 </v>
   <v>       0.47368421      -0.47368421       0.00000000 </v>
   <v>       0.50000000      -0.50000000       0.00000000 </v>
   <v>       0.50000000      -0.50000000       0.00000000 </v>
   <v>       0.50879806      -0.49115395       0.00000000 </v>
   <v>       0.51759612      -0.48230790       0.00000000 </v>
   <v>       0.52639418      -0.47346185       0.00000000 </v>
   <v>       0.53519225      -0.46461580       0.00000000 </v>
   <v>       0.54399031      -0.45576975       0.00000000 </v>
   <v>       0.55278837      -0.44692370       0.00000000 </v>
   <v>       0.56158643      -0.43807764       0.00000000 </v>
   <v>       0.57038449      -0.42923159       0.00000000 </v>
   <v>       0.57918255      -0.42038554       0.00000000 </v>
   <v>       0.58798061      -0.41153949       0.00000000 </v>
   <v>       0.59677867      -0.40269344       0.00000000 </v>
   <v>       0.60557674      -0.39384739       0.00000000 </v>
   <v>       0.61437480      -0.38500134       0.00000000 </v>
   <v>       0.62317286      -0.37615529       0.00000000 </v>
   <v>       0.63197092      -0.36730924       0.00000000 </v>
   <v>       0.64076898      -0.35846319       0.00000000 </v>
   <v>       0.64956704      -0.34961714       0.00000000 </v>
   <v>       0.65836510      -0.34077109       0.00000000 </v>
   <v>       0.66716316      -0.33192504       0.00000000 </v>
   <v>       0.66716316      -0.33192504       0.00000000 </v>
   <v>       0.65836510      -0.31445530       0.00000000 </v>
   <v>       0.64956704      -0.29698556       0.00000000 </v>
   <v>       0.64076898      -0.27951582       0.00000000 </v>
   <v>       0.63197092      -0.26204608       0.00000000 </v>
   <v>       0.62317286      -0.24457634       0.00000000 </v>
   <v>       0.61437480      -0.22710660       0.00000000 </v>
   <v>       0.60557674      -0.20963686       0.00000000 </v>
   <v>       0.59677867      -0.19216713       0.00000000 </v>
   <v>       0.58798061      -0.17469739       0.00000000 </v>
   <v>       0.57918255      -0.15722765       0.00000000 </v>
   <v>       0.57038449      -0.13975791       0.00000000 </v>
   <v>       0.56158643      -0.12228817       0.00000000 </v>
   <v>       0.55278837      -0.10481843       0.00000000 </v>
   <v>       0.54399031      -0.08734869       0.00000000 </v>
   <v>       0.53519225      -0.06987895       0.00000000 </v>
   <v>       0.52639418      -0.05240922       0.00000000 </v>
   <v>       0.51759612      -0.03493948       0.00000000 </v>
   <v>       0.50879806      -0.01746974       0.00000000 </v>
   <v>       0.50000000       0.00000000       0.00000000 </v>
   <v>       0.50000000       0.00000000       0.00000000 </v>
   <v>       0.49120194       0.01746974       0.00000000 </v>
   <v>       0.48240388       0.03493948       0.00000000 </v>
   <v>       0.47360582       0.05240922       0.00000000 </v>
   <v>       0.46480775       0.06987895       0.00000000 </v>
   <v>       0.45600969       0.08734869       0.00000000 </v>
   <v>       0.44721163       0.10481843       0.00000000 </v>
   <v>       0.43841357       0.12228817       0.00000000 </v>
   <v>       0.42961551       0.13975791       0.00000000 </v>
   <v>       0.42081745       0.15722765       0.00000000 </v>
   <v>       0.41201939       0.17469739       0.00000000 </v>
   <v>       0.40322133       0.19216713       0.00000000 </v>
   <v>       0.39442326       0.20963686       0.00000000 </v>
   <v>       0.38562520       0.22710660       0.00000000 </v>
   <v>       0.37682714       0.24457634       0.00000000 </v>
   <v>       0.36802908       0.26204608       0.00000000 </v>
   <v>       0.35923102       0.27951582       0.00000000 </v>
   <v>       0.35043296       0.29698556       0.00000000 </v>
   <v>       0.34163490       0.31445530       0.00000000 </v>
   <v>       0.33283683       0.33192504       0.00000000 </v>
   <v>       0.33283683       0.33192504       0.00000000 </v>
   <v>       0.31531911       0.34077109       0.00000000 </v>
   <v>       0.29780138       0.34961714       0.00000000 </v>
   <v>       0.28028365       0.35846319       0.00000000 </v>
   <v>       0.26276592       0.36730924       0.00000000 </v>
   <v>       0.24524819       0.37615529       0.00000000 </v>
   <v>       0.22773047       0.38500134       0.00000000 </v>
   <v>       0.21021274       0.39384739       0.00000000 </v>
   <v>       0.19269501       0.40269344       0.00000000 </v>
   <v>       0.17517728       0.41153949       0.00000000 </v>
   <v>       0.15765955       0.42038554       0.00000000 </v>
   <v>       0.14014183       0.42923159       0.00000000 </v>
   <v>       0.12262410       0.43807764       0.00000000 </v>
   <v>       0.10510637       0.44692370       0.00000000 </v>
   <v>       0.08758864       0.45576975       0.00000000 </v>
   <v>       0.07007091       0.46461580       0.00000000 </v>
   <v>       0.05255318       0.47346185       0.00000000 </v>
   <v>       0.03503546       0.48230790       0.00000000 </v>
   <v>       0.01751773       0.49115395       0.00000000 </v>
   <v>       0.00000000       0.50000000       0.00000000 </v>
   <v>       0.00000000       0.50000000       0.00000000 </v>
   <v>       0.00000000       0.47368421       0.00000000 </v>
   <v>       0.00000000       0.44736842       0.00000000 </v>
   <v>       0.00000000       0.42105263       0.00000000 </v>
   <v>       0.00000000       0.39473684       0.00000000 </v>
   <v>       0.00000000       0.36842105       0.00000000 </v>
   <v>       0.00000000       0.34210526       0.00000000 </v>
   <v>       0.00000000       0.31578947       0.00000000 </v>
   <v>       0.00000000       0.28947368       0.00000000 </v>
   <v>       0.00000000       0.26315789       0.00000000 </v>
   <v>       0.00000000       0.23684211       0.00000000 </v>
   <v>       0.00000000       0.21052632       0.00000000 </v>
   <v>       0.00000000       0.18421053       0.00000000 </v>
   <v>       0.00000000       0.15789474       0.00000000 </v>
   <v>       0.00000000       0.13157895       0.00000000 </v>
   <v>       0.00000000       0.10526316       0.00000000 </v>
   <v>       0.00000000       0.07894737       0.00000000 </v>
   <v>       0.00000000       0.05263158       0.00000000 </v>
   <v>       0.00000000       0.02631579       0.00000000 </v>
   <v>       0.00000000       0.00000000       0.00000000 </v>
  </varray>
  <varray name="weights" >
   <v>       0.00833333 </v>
   <v>       0.00833333 </v>
   <v>       0.00833333 </v>
   <v>       0.00833333 </v>
   <v>       0.00833333 </v>
   <v>       0.00833333 </v>
   <v>       0.00833333 </v>
   <v>       0.00833333 </v>
   <v>       0.00833333 </v>
   <v>       0.00833333 </v>
   <v>       0.00833333 </v>
   <v>       0.00833333 </v>
   <v>       0.00833333 </v>
   <v>       0.00833333 </v>
   <v>       0.00833333 </v>
   <v>       0.00833333 </v>
   <v>       0.00833333 </v>
   <v>       0.00833333 </v>
   <v>       0.00833333 </v>
   <v>       0.00833333 </v>
   <v>       0.00833333 </v>
   <v>       0.00833333 </v>
   <v>       0.00833333 </v>
   <v>       0.00833333 </v>
   <v>       0.00833333 </v>
   <v>       0.00833333 </v>
   <v>       0.00833333 </v>
   <v>       0.00833333 </v>
   <v>       0.00833333 </v>
   <v>       0.00833333 </v>
   <v>       0.00833333 </v>
   <v>       0.00833333 </v>
   <v>       0.00833333 </v>
   <v>       0.00833333 </v>
   <v>       0.00833333 </v>
   <v>       0.00833333 </v>
   <v>       0.00833333 </v>
   <v>       0.00833333 </v>
   <v>       0.00833333 </v>
   <v>       0.00833333 </v>
   <v>       0.00833333 </v>
   <v>       0.00833333 </v>
   <v>       0.00833333 </v>
   <v>       0.00833333 </v>
   <v>       0.00833333 </v>
   <v>       0.00833333 </v>
   <v>       0.00833333 </v>
   <v>       0.00833333 </v>
   <v>       0.00833333 </v>
   <v>       0.00833333 </v>
   <v>       0.00833333 </v>
   <v>       0.00833333 </v>
   <v>       0.00833333 </v>
   <v>       0.00833333 </v>
   <v>       0.00833333 </v>
   <v>       0.00833333 </v>
   <v>       0.00833333 </v>
   <v>       0.00833333 </v>
   <v>       0.00833333 </v>
   <v>       0.00833333 </v>
   <v>       0.00833333 </v>
   <v>       0.00833333 </v>
   <v>       0.00833333 </v>
   <v>       0.00833333 </v>
   <v>       0.00833333 </v>
   <v>       0.00833333 </v>
   <v>       0.00833333 </v>
   <v>       0.00833333 </v>
   <v>       0.00833333 </v>
   <v>       0.00833333 </v>
   <v>       0.00833333 </v>
   <v>       0.00833333 </v>
   <v>       0.00833333 </v>
   <v>       0.00833333 </v>
   <v>       0.00833333 </v>
   <v>       0.00833333 </v>
   <v>       0.00833333 </v>
   <v>       0.00833333 </v>
   <v>       0.00833333 </v>
   <v>       0.00833333 </v>
   <v>       0.00833333 </v>
   <v>       0.00833333 </v>
   <v>       0.00833333 </v>
   <v>       0.00833333 </v>
   <v>       0.00833333 </v>
   <v>       0.00833333 </v>
   <v>       0.00833333 </v>
   <v>       0.00833333 </v>
   <v>       0.00833333 </v>
   <v>       0.00833333 </v>
   <v>       0.00833333 </v>
   <v>       0.00833333 </v>
   <v>       0.00833333 </v>
   <v>       0.00833333 </v>
   <v>       0.00833333 </v>
   <v>       0.00833333 </v>
   <v>       0.00833333 </v>
   <v>       0.00833333 </v>
   <v>       0.00833333 </v>
   <v>       0.00833333 </v>
   <v>       0.00833333 </v>
   <v>       0.00833333 </v>
   <v>       0.00833333 </v>
   <v>       0.00833333 </v>
   <v>       0.00833333 </v>
   <v>       0.00833333 </v>
   <v>       0.00833333 </v>
   <v>       0.00833333 </v>
   <v>       0.00833333 </v>
   <v>       0.00833333 </v>
   <v>       0.00833333 </v>
   <v>       0.00833333 </v>
   <v>       0.00833333 </v>
   <v>       0.00833333 </v>
   <v>       0.00833333 </v>
   <v>       0.00833333 </v>
   <v>       0.00833333 </v>
   <v>       0.00833333 </v>
   <v>       0.00833333 </v>
   <v>       0.00833333 </v>
  </varray>
 </kpoints>
 <parameters>
  <separator name="general" >
   <i type="string" name="SYSTEM">Simulation for cell shape cell volume r</i>
   <i type="logical" name="LCOMPAT"> F  </i>
  </separator>
  <separator name="electronic" >
   <i type="string" name="PREC">high</i>
   <i name="ENMAX">    500.00000000</i>
   <i name="ENAUG">    644.87300000</i>
   <i name="EDIFF">      0.00001000</i>
   <i type="int" name="IALGO">    38</i>
   <i type="int" name="IWAVPR">    10</i>
   <i type="int" name="NBANDS">   208</i>
   <i name="NELECT">    294.00000000</i>
   <i type="int" name="TURBO">     0</i>
   <i type="int" name="IRESTART">     0</i>
   <i type="int" name="NREBOOT">     0</i>
   <i type="int" name="NMIN">     0</i>
   <i name="EREF">      0.00000000</i>
   <separator name="electronic smearing" >
    <i type="int" name="ISMEAR">     0</i>
    <i name="SIGMA">      0.01000000</i>
    <i name="KSPACING">      0.50000000</i>
    <i type="logical" name="KGAMMA"> T  </i>
   </separator>
   <separator name="electronic projectors" >
    <i type="logical" name="LREAL"> T  </i>
    <v name="ROPT">     -0.00040000     -0.00040000     -0.00040000</v>
    <i type="int" name="LMAXPAW">  -100</i>
    <i type="int" name="LMAXMIX">     2</i>
    <i type="logical" name="NLSPLINE"> F  </i>
   </separator>
   <separator name="electronic startup" >
    <i type="int" name="ISTART">     1</i>
    <i type="int" name="ICHARG">    11</i>
    <i type="int" name="INIWAV">     1</i>
   </separator>
   <separator name="electronic spin" >
    <i type="int" name="ISPIN">     1</i>
    <i type="logical" name="LNONCOLLINEAR"> F  </i>
    <v name="MAGMOM">      1.00000000      1.00000000      1.00000000      1.00000000      1.00000000      1.00000000      1.00000000      1.00000000      1.00000000      1.00000000      1.00000000      1.00000000      1.00000000      1.00000000      1.00000000      1.00000000      1.00000000      1.00000000      1.00000000      1.00000000
      1.00000000      1.00000000      1.00000000      1.00000000      1.00000000      1.00000000      1.00000000      1.00000000      1.00000000      1.00000000      1.00000000      1.00000000      1.00000000      1.00000000      1.00000000      1.00000000      1.00000000      1.00000000      1.00000000      1.00000000
      1.00000000      1.00000000      1.00000000      1.00000000      1.00000000      1.00000000      1.00000000      1.00000000      1.00000000      1.00000000      1.00000000      1.00000000      1.00000000      1.00000000      1.00000000      1.00000000      1.00000000      1.00000000      1.00000000      1.00000000
      1.00000000      1.00000000      1.00000000      1.00000000      1.00000000      1.00000000      1.00000000      1.00000000      1.00000000      1.00000000      1.00000000      1.00000000      1.00000000      1.00000000      1.00000000      1.00000000      1.00000000      1.00000000      1.00000000      1.00000000
      1.00000000      1.00000000      1.00000000      1.00000000      1.00000000      1.00000000      1.00000000      1.00000000      1.00000000      1.00000000      1.00000000      1.00000000      1.00000000      1.00000000      1.00000000      1.00000000</v>
    <i name="NUPDOWN">     -1.00000000</i>
    <i type="logical" name="LSORBIT"> F  </i>
    <v name="SAXIS">      0.00000000      0.00000000      1.00000000</v>
    <i type="logical" name="LSPIRAL"> F  </i>
    <v name="QSPIRAL">      0.00000000      0.00000000      0.00000000</v>
    <i type="logical" name="LZEROZ"> F  </i>
   </separator>
   <separator name="electronic exchange-correlation" >
    <i type="logical" name="LASPH"> F  </i>
    <i type="logical" name="LMETAGGA"> F  </i>
   </separator>
   <separator name="electronic convergence" >
    <i type="int" name="NELM">   200</i>
    <i type="int" name="NELMDL">     0</i>
    <i type="int" name="NELMIN">     2</i>
    <i name="ENINI">    500.00000000</i>
    <separator name="electronic convergence detail" >
     <i type="logical" name="LDIAG"> T  </i>
     <i type="logical" name="LSUBROT"> F  </i>
     <i name="WEIMIN">      0.00000000</i>
     <i name="EBREAK">      0.00000001</i>
     <i name="DEPER">      0.30000000</i>
     <i type="int" name="NRMM">     4</i>
     <i name="TIME">      0.40000000</i>
    </separator>
   </separator>
   <separator name="electronic mixer" >
    <i name="AMIX">      0.40000000</i>
    <i name="BMIX">      1.00000000</i>
    <i name="AMIN">      0.10000000</i>
    <i name="AMIX_MAG">      1.60000000</i>
    <i name="BMIX_MAG">      1.00000000</i>
    <separator name="electronic mixer details" >
     <i type="int" name="IMIX">     4</i>
     <i type="logical" name="MIXFIRST"> F  </i>
     <i type="int" name="MAXMIX">   -45</i>
     <i name="WC">    100.00000000</i>
     <i type="int" name="INIMIX">     1</i>
     <i type="int" name="MIXPRE">     1</i>
     <i type="int" name="MREMOVE">     5</i>
    </separator>
   </separator>
   <separator name="electronic dipolcorrection" >
    <i type="logical" name="LDIPOL"> F  </i>
    <i type="logical" name="LMONO"> F  </i>
    <i type="int" name="IDIPOL">     0</i>
    <i name="EPSILON">      1.00000000</i>
    <v name="DIPOL">   -100.00000000   -100.00000000   -100.00000000</v>
    <i name="EFIELD">      0.00000000</i>
   </separator>
  </separator>
  <separator name="grids" >
   <i type="int" name="NGX">   216</i>
   <i type="int" name="NGY">   216</i>
   <i type="int" name="NGZ">   150</i>
   <i type="int" name="NGXF">   320</i>
   <i type="int" name="NGYF">   320</i>
   <i type="int" name="NGZF">   224</i>
   <i type="logical" name="ADDGRID"> F  </i>
  </separator>
  <separator name="ionic" >
   <i type="int" name="NSW">     0</i>
   <i type="int" name="IBRION">    -1</i>
   <i type="int" name="MDALGO">     0</i>
   <i type="int" name="ISIF">     2</i>
   <i name="PSTRESS">      0.00000000</i>
   <i name="EDIFFG">     -0.01000000</i>
   <i type="int" name="NFREE">     0</i>
   <i name="POTIM">      0.30000000</i>
   <i name="SMASS">     -3.00000000</i>
   <i name="SCALEE">      1.00000000</i>
  </separator>
  <separator name="ionic md" >
   <i name="TEBEG">      0.00010000</i>
   <i name="TEEND">      0.00010000</i>
   <i type="int" name="NBLOCK">     1</i>
   <i type="int" name="KBLOCK">     1</i>
   <i type="int" name="NPACO">   256</i>
   <i name="APACO">     16.00000000</i>
  </separator>
  <separator name="symmetry" >
   <i type="int" name="ISYM">     2</i>
   <i name="SYMPREC">      0.00001000</i>
  </separator>
  <separator name="dos" >
   <i type="int" name="LORBIT">     0</i>
   <v name="RWIGS">     -1.00000000     -1.00000000     -1.00000000</v>
   <i type="int" name="NEDOS">   301</i>
   <i name="EMIN">     10.00000000</i>
   <i name="EMAX">    -10.00000000</i>
   <i name="EFERMI">      0.00000000</i>
  </separator>
  <separator name="writing" >
   <i type="int" name="NWRITE">     0</i>
   <i type="logical" name="LWAVE"> F  </i>
   <i type="logical" name="LDOWNSAMPLE"> F  </i>
   <i type="logical" name="LCHARG"> F  </i>
   <i type="logical" name="LPARD"> F  </i>
   <i type="logical" name="LVTOT"> F  </i>
   <i type="logical" name="LVHAR"> F  </i>
   <i type="logical" name="LELF"> F  </i>
   <i type="logical" name="LOPTICS"> F  </i>
   <v name="STM">      0.00000000      0.00000000      0.00000000      0.00000000      0.00000000      0.00000000      0.00000000</v>
  </separator>
  <separator name="performance" >
   <i type="int" name="NPAR">    16</i>
   <i type="int" name="NSIM">     4</i>
   <i type="int" name="NBLK">    -1</i>
   <i type="logical" name="LPLANE"> T  </i>
   <i type="logical" name="LSCALAPACK"> T  </i>
   <i type="logical" name="LSCAAWARE"> F  </i>
   <i type="logical" name="LSCALU"> F  </i>
   <i type="logical" name="LASYNC"> F  </i>
   <i type="logical" name="LORBITALREAL"> F  </i>
  </separator>
  <separator name="miscellaneous" >
   <i type="int" name="IDIOT">     3</i>
   <i type="int" name="ISPECIAL">     0</i>
   <i type="logical" name="LMUSIC"> F  </i>
   <v name="POMASS">     12.01100000      1.00000000     14.00100000</v>
   <v name="DARWINR">      0.00000000      0.00000000      0.00000000</v>
   <v name="DARWINV">      1.00000000      1.00000000      1.00000000</v>
   <i type="logical" name="LCORR"> T  </i>
  </separator>
  <i type="logical" name="GGA_COMPAT"> T  </i>
  <i type="logical" name="LBERRY"> F  </i>
  <i type="int" name="ICORELEVEL">     0</i>
  <i type="logical" name="LDAU"> F  </i>
  <i type="int" name="I_CONSTRAINED_M">     0</i>
  <separator name="electronic exchange-correlation" >
   <i type="string" name="GGA">PE</i>
   <i type="int" name="VOSKOWN">     0</i>
   <i type="logical" name="LHFCALC"> F  </i>
   <i type="string" name="PRECFOCK"></i>
   <i type="logical" name="LSYMGRAD"> F  </i>
   <i type="logical" name="LHFONE"> F  </i>
   <i type="logical" name="LRHFCALC"> F  </i>
   <i type="logical" name="LTHOMAS"> F  </i>
   <i type="logical" name="LMODELHF"> F  </i>
   <i name="ENCUT4O">     -1.00000000</i>
   <i type="int" name="EXXOEP">     0</i>
   <i type="int" name="FOURORBIT">     0</i>
   <i name="AEXX">      0.00000000</i>
   <i name="HFALPHA">      0.00000000</i>
   <i name="MCALPHA">      0.00000000</i>
   <i name="ALDAX">      1.00000000</i>
   <i name="AGGAX">      1.00000000</i>
   <i name="ALDAC">      1.00000000</i>
   <i name="AGGAC">      1.00000000</i>
   <i type="int" name="NKREDX">     1</i>
   <i type="int" name="NKREDY">     1</i>
   <i type="int" name="NKREDZ">     1</i>
   <i type="logical" name="SHIFTRED"> F  </i>
   <i type="logical" name="ODDONLY"> F  </i>
   <i type="logical" name="EVENONLY"> F  </i>
   <i type="int" name="LMAXFOCK">     0</i>
   <i type="int" name="NMAXFOCKAE">     0</i>
   <i type="logical" name="LFOCKAEDFT"> F  </i>
   <i name="HFSCREEN">      0.00000000</i>
   <i name="HFSCREENC">      0.00000000</i>
   <i type="int" name="NBANDSGWLOW">     0</i>
  </separator>
  <separator name="vdW DFT" >
   <i type="logical" name="LUSE_VDW"> F  </i>
   <i name="Zab_VDW">     -0.84910000</i>
   <i name="PARAM1">      0.12340000</i>
   <i name="PARAM2">      1.00000000</i>
   <i name="PARAM3">      0.00000000</i>
  </separator>
  <separator name="model GW" >
   <i type="int" name="MODEL_GW">     0</i>
   <i name="MODEL_EPS0">     90.11268963</i>
   <i name="MODEL_ALPHA">      1.00000000</i>
  </separator>
  <separator name="linear response parameters" >
   <i type="logical" name="LEPSILON"> F  </i>
   <i type="logical" name="LRPA"> F  </i>
   <i type="logical" name="LNABLA"> F  </i>
   <i type="logical" name="LVEL"> F  </i>
   <i type="int" name="KINTER">     0</i>
   <i name="CSHIFT">      0.10000000</i>
   <i name="OMEGAMAX">     -1.00000000</i>
   <i name="DEG_THRESHOLD">      0.00200000</i>
   <i name="RTIME">     -0.10000000</i>
   <i name="WPLASMAI">      0.00000000</i>
   <v name="DFIELD">      0.00000000      0.00000000      0.00000000</v>
   <v name="WPLASMA">      0.00000000      0.00000000      0.00000000      0.00000000      0.00000000      0.00000000      0.00000000      0.00000000      0.00000000</v>
  </separator>
  <separator name="orbital magnetization" >
   <i type="logical" name="NUCIND"> F  </i>
   <v name="MAGPOS">      0.00000000      0.00000000      0.00000000</v>
   <i type="logical" name="LNICSALL"> T  </i>
   <i type="logical" name="ORBITALMAG"> F  </i>
   <i type="logical" name="LMAGBLOCH"> F  </i>
   <i type="logical" name="LCHIMAG"> F  </i>
   <i type="logical" name="LGAUGE"> T  </i>
   <i type="int" name="MAGATOM">     0</i>
   <v name="MAGDIPOL">      0.00000000      0.00000000      0.00000000</v>
   <v name="AVECCONST">      0.00000000      0.00000000      0.00000000</v>
  </separator>
  <separator name="response functions" >
   <i type="logical" name="LADDER"> F  </i>
   <i type="logical" name="LRPAFORCE"> F  </i>
   <i type="logical" name="LFXC"> F  </i>
   <i type="logical" name="LHARTREE"> T  </i>
   <i type="int" name="IBSE">     0</i>
   <v type="int" name="KPOINT">    -1     0     0     0</v>
   <i type="logical" name="LTCTE"> F  </i>
   <i type="logical" name="LTETE"> F  </i>
   <i type="logical" name="LTRIPLET"> F  </i>
   <i type="logical" name="LFXCEPS"> F  </i>
   <i type="logical" name="LFXHEG"> F  </i>
   <i type="int" name="NATURALO">     2</i>
   <i type="logical" name="L2ORDER"> F  </i>
   <i type="logical" name="LMP2LT"> F  </i>
   <i type="logical" name="LUSEW"> F  </i>
   <i name="ENCUTGW">     -2.00000000</i>
   <i name="ENCUTGWSOFT">     -2.00000000</i>
   <i name="ENCUTLF">     -1.00000000</i>
   <i type="int" name="LMAXMP2">    -1</i>
   <i name="SCISSOR">      0.00000000</i>
   <i type="int" name="NOMEGA">     0</i>
   <i type="int" name="NOMEGAR">     0</i>
   <i type="int" name="NBANDSGW">    -1</i>
   <i type="int" name="NBANDSO">    -1</i>
   <i type="int" name="NBANDSV">    -1</i>
   <i type="int" name="NELM">   200</i>
   <i type="int" name="NELMHF">     1</i>
   <i type="int" name="DIM">     3</i>
   <i type="int" name="ANTIRES">     0</i>
   <i name="OMEGAMAX">    -30.00000000</i>
   <i name="OMEGAMIN">    -30.00000000</i>
   <i name="OMEGATL">   -200.00000000</i>
   <i type="int" name="OMEGAGRID">   140</i>
   <i name="CSHIFT">     -0.10000000</i>
   <i type="logical" name="SELFENERGY"> F  </i>
   <i type="logical" name="LSPECTRAL"> F  </i>
   <i type="logical" name="LSPECTRALGW"> F  </i>
   <i type="logical" name="LSINGLES"> F  </i>
   <i type="logical" name="LFERMIGW"> F  </i>
   <i type="logical" name="ODDONLYGW"> F  </i>
   <i type="logical" name="EVENONLYGW"> F  </i>
   <i type="int" name="NKREDLFX">     1</i>
   <i type="int" name="NKREDLFY">     1</i>
   <i type="int" name="NKREDLFZ">     1</i>
   <i type="int" name="MAXMEM">  2800</i>
   <i type="int" name="TELESCOPE">     0</i>
   <i type="int" name="TAUPAR">     1</i>
   <i type="int" name="OMEGAPAR">    -1</i>
   <i name="LAMBDA">      1.00000000</i>
  </separator>
  <separator name="External order field" >
   <i name="OFIELD_KAPPA">      0.00000000</i>
   <v name="OFIELD_K">      0.00000000      0.00000000      0.00000000</v>
   <i name="OFIELD_Q6_NEAR">      0.00000000</i>
   <i name="OFIELD_Q6_FAR">      0.00000000</i>
   <i name="OFIELD_A">      0.00000000</i>
  </separator>
  <separator name="solvation model" >
   <i type="logical" name="LSOL"> F  </i>
  </separator>
 </parameters>
 <atominfo>
  <atoms>      96 </atoms>
  <types>       3 </types>
  <array name="atoms" >
   <dimension dim="1">ion</dimension>
   <field type="string">element</field>
   <field type="int">atomtype</field>
   <set>
    <rc><c>C </c><c>   1</c></rc>
    <rc><c>C </c><c>   1</c></rc>
    <rc><c>C </c><c>   1</c></rc>
    <rc><c>C </c><c>   1</c></rc>
    <rc><c>C </c><c>   1</c></rc>
    <rc><c>C </c><c>   1</c></rc>
    <rc><c>C </c><c>   1</c></rc>
    <rc><c>C </c><c>   1</c></rc>
    <rc><c>C </c><c>   1</c></rc>
    <rc><c>C </c><c>   1</c></rc>
    <rc><c>C </c><c>   1</c></rc>
    <rc><c>C </c><c>   1</c></rc>
    <rc><c>C </c><c>   1</c></rc>
    <rc><c>C </c><c>   1</c></rc>
    <rc><c>C </c><c>   1</c></rc>
    <rc><c>C </c><c>   1</c></rc>
    <rc><c>C </c><c>   1</c></rc>
    <rc><c>C </c><c>   1</c></rc>
    <rc><c>C </c><c>   1</c></rc>
    <rc><c>C </c><c>   1</c></rc>
    <rc><c>C </c><c>   1</c></rc>
    <rc><c>C </c><c>   1</c></rc>
    <rc><c>C </c><c>   1</c></rc>
    <rc><c>C </c><c>   1</c></rc>
    <rc><c>C </c><c>   1</c></rc>
    <rc><c>C </c><c>   1</c></rc>
    <rc><c>C </c><c>   1</c></rc>
    <rc><c>C </c><c>   1</c></rc>
    <rc><c>C </c><c>   1</c></rc>
    <rc><c>C </c><c>   1</c></rc>
    <rc><c>C </c><c>   1</c></rc>
    <rc><c>C </c><c>   1</c></rc>
    <rc><c>C </c><c>   1</c></rc>
    <rc><c>C </c><c>   1</c></rc>
    <rc><c>C </c><c>   1</c></rc>
    <rc><c>C </c><c>   1</c></rc>
    <rc><c>C </c><c>   1</c></rc>
    <rc><c>C </c><c>   1</c></rc>
    <rc><c>C </c><c>   1</c></rc>
    <rc><c>C </c><c>   1</c></rc>
    <rc><c>C </c><c>   1</c></rc>
    <rc><c>C </c><c>   1</c></rc>
    <rc><c>H </c><c>   2</c></rc>
    <rc><c>H </c><c>   2</c></rc>
    <rc><c>H </c><c>   2</c></rc>
    <rc><c>H </c><c>   2</c></rc>
    <rc><c>H </c><c>   2</c></rc>
    <rc><c>H </c><c>   2</c></rc>
    <rc><c>H </c><c>   2</c></rc>
    <rc><c>H </c><c>   2</c></rc>
    <rc><c>H </c><c>   2</c></rc>
    <rc><c>H </c><c>   2</c></rc>
    <rc><c>H </c><c>   2</c></rc>
    <rc><c>H </c><c>   2</c></rc>
    <rc><c>H </c><c>   2</c></rc>
    <rc><c>H </c><c>   2</c></rc>
    <rc><c>H </c><c>   2</c></rc>
    <rc><c>H </c><c>   2</c></rc>
    <rc><c>H </c><c>   2</c></rc>
    <rc><c>H </c><c>   2</c></rc>
    <rc><c>H </c><c>   2</c></rc>
    <rc><c>H </c><c>   2</c></rc>
    <rc><c>H </c><c>   2</c></rc>
    <rc><c>H </c><c>   2</c></rc>
    <rc><c>H </c><c>   2</c></rc>
    <rc><c>H </c><c>   2</c></rc>
    <rc><c>H </c><c>   2</c></rc>
    <rc><c>H </c><c>   2</c></rc>
    <rc><c>H </c><c>   2</c></rc>
    <rc><c>H </c><c>   2</c></rc>
    <rc><c>H </c><c>   2</c></rc>
    <rc><c>H </c><c>   2</c></rc>
    <rc><c>H </c><c>   2</c></rc>
    <rc><c>H </c><c>   2</c></rc>
    <rc><c>H </c><c>   2</c></rc>
    <rc><c>H </c><c>   2</c></rc>
    <rc><c>H </c><c>   2</c></rc>
    <rc><c>H </c><c>   2</c></rc>
    <rc><c>N </c><c>   3</c></rc>
    <rc><c>N </c><c>   3</c></rc>
    <rc><c>N </c><c>   3</c></rc>
    <rc><c>N </c><c>   3</c></rc>
    <rc><c>N </c><c>   3</c></rc>
    <rc><c>N </c><c>   3</c></rc>
    <rc><c>N </c><c>   3</c></rc>
    <rc><c>N </c><c>   3</c></rc>
    <rc><c>N </c><c>   3</c></rc>
    <rc><c>N </c><c>   3</c></rc>
    <rc><c>N </c><c>   3</c></rc>
    <rc><c>N </c><c>   3</c></rc>
    <rc><c>N </c><c>   3</c></rc>
    <rc><c>N </c><c>   3</c></rc>
    <rc><c>N </c><c>   3</c></rc>
    <rc><c>N </c><c>   3</c></rc>
    <rc><c>N </c><c>   3</c></rc>
    <rc><c>N </c><c>   3</c></rc>
   </set>
  </array>
  <array name="atomtypes" >
   <dimension dim="1">type</dimension>
   <field type="int">atomspertype</field>
   <field type="string">element</field>
   <field>mass</field>
   <field>valence</field>
   <field type="string">pseudopotential</field>
   <set>
    <rc><c>  42</c><c>C </c><c>     12.01100000</c><c>      4.00000000</c><c>  PAW_PBE C 08Apr2002                   </c></rc>
    <rc><c>  36</c><c>H </c><c>      1.00000000</c><c>      1.00000000</c><c>  PAW_PBE H 15Jun2001                   </c></rc>
    <rc><c>  18</c><c>N </c><c>     14.00100000</c><c>      5.00000000</c><c>  PAW_PBE N 08Apr2002                   </c></rc>
   </set>
  </array>
 </atominfo>
 <structure name="initialpos" >
  <crystal>
   <varray name="basis" >
    <v>      28.87384308      -0.08265273       0.00000000 </v>
    <v>     -14.50915880      25.00881980       0.00000000 </v>
    <v>       0.00000000       0.00000000      20.00000000 </v>
   </varray>
   <i name="volume">  14418.03034043 </i>
   <varray name="rec_basis" >
    <v>       0.03469104       0.02012641       0.00000000 </v>
    <v>       0.00011465       0.04005241       0.00000000 </v>
    <v>       0.00000000       0.00000000       0.05000000 </v>
   </varray>
  </crystal>
  <varray name="positions" >
   <v>       0.71502421       0.37097963       0.44229058 </v>
   <v>       0.62625627       0.34278582       0.44428896 </v>
   <v>       0.65403740       0.28223986       0.44159724 </v>
   <v>       0.64251669       0.22542466       0.44226156 </v>
   <v>       0.77198120       0.41666284       0.44351717 </v>
   <v>       0.28279067       0.62500301       0.55584447 </v>
   <v>       0.37178264       0.65418085       0.55626804 </v>
   <v>       0.34300411       0.71397242       0.55463906 </v>
   <v>       0.35378050       0.77050655       0.55163539 </v>
   <v>       0.22594808       0.57907028       0.55435080 </v>
   <v>       0.43063997       0.56575003       0.54627233 </v>
   <v>       0.48600124       0.51370607       0.51231236 </v>
   <v>       0.40684063       0.50941428       0.54277272 </v>
   <v>       0.48633874       0.42823295       0.49074804 </v>
   <v>       0.51370084       0.40193084       0.47316601 </v>
   <v>       0.13506274       0.56651172       0.54403064 </v>
   <v>       0.02739093       0.51136842       0.50862362 </v>
   <v>       0.10262230       0.59024053       0.54037886 </v>
   <v>       0.94166508       0.51121199       0.48607095 </v>
   <v>       0.88784602       0.48398593       0.46794801 </v>
   <v>       0.43182072       0.86172968       0.53988864 </v>
   <v>       0.48319478       0.96928642       0.50484185 </v>
   <v>       0.48814809       0.89480973       0.53483926 </v>
   <v>       0.56838186       0.05579168       0.48171921 </v>
   <v>       0.59451333       0.10979693       0.46496343 </v>
   <v>       0.58079476       0.35393822       0.44755971 </v>
   <v>       0.41779248       0.64375864       0.55507322 </v>
   <v>       0.48583960       0.59618676       0.53200760 </v>
   <v>       0.51333127       0.56989308       0.51497984 </v>
   <v>       0.51378523       0.48441228       0.49381356 </v>
   <v>       0.56888382       0.43232392       0.45879779 </v>
   <v>       0.59287129       0.48865177       0.46304453 </v>
   <v>       0.10999639       0.51147181       0.52933296 </v>
   <v>       0.05610680       0.48409382       0.51148828 </v>
   <v>       0.97023844       0.48380530       0.48916761 </v>
   <v>       0.86270398       0.42895722       0.45315068 </v>
   <v>       0.89497985       0.40507297       0.45709572 </v>
   <v>       0.40104334       0.88597642       0.52645303 </v>
   <v>       0.42698730       0.93981825       0.50884300 </v>
   <v>       0.51218633       0.02655614       0.48618150 </v>
   <v>       0.56395179       0.13448264       0.45288623 </v>
   <v>       0.50758792       0.10151383       0.45778921 </v>
   <v>       0.56010497       0.33764819       0.49603609 </v>
   <v>       0.65962690       0.22022107       0.48951106 </v>
   <v>       0.77754843       0.43764155       0.49196301 </v>
   <v>       0.44685316       0.66921294       0.59383408 </v>
   <v>       0.32935758       0.77504092       0.59089536 </v>
   <v>       0.22178915       0.55017535       0.59347732 </v>
   <v>       0.44365545       0.40603286       0.50234267 </v>
   <v>       0.49231289       0.35829673       0.47052035 </v>
   <v>       0.36397526       0.48410817       0.55396778 </v>
   <v>       0.35926906       0.56391796       0.56269103 </v>
   <v>       0.96237697       0.55375065       0.49811905 </v>
   <v>       0.86576341       0.50538134       0.46520215 </v>
   <v>       0.12039856       0.63296509       0.55195871 </v>
   <v>       0.20525874       0.63774943       0.56056134 </v>
   <v>       0.59075026       0.03544603       0.49175404 </v>
   <v>       0.63816139       0.13239499       0.46129105 </v>
   <v>       0.51372440       0.87764683       0.54514837 </v>
   <v>       0.43384659       0.79235840       0.55686739 </v>
   <v>       0.55127048       0.32935859       0.40873298 </v>
   <v>       0.66630017       0.22122372       0.40183332 </v>
   <v>       0.77596968       0.44577174       0.40478203 </v>
   <v>       0.43877702       0.65948772       0.50662340 </v>
   <v>       0.33696602       0.77454589       0.50347456 </v>
   <v>       0.22078414       0.55790573       0.50612725 </v>
   <v>       0.63576871       0.51391214       0.45201930 </v>
   <v>       0.50713052       0.63983245       0.53429242 </v>
   <v>       0.55601572       0.59211579       0.50338240 </v>
   <v>       0.64002016       0.43369694       0.44160885 </v>
   <v>       0.87714422       0.36234342       0.44550447 </v>
   <v>       0.13221136       0.49020225       0.53183681 </v>
   <v>       0.03548234       0.44156495       0.49940134 </v>
   <v>       0.79252787       0.35794128       0.43546697 </v>
   <v>       0.48216433       0.11894439       0.44808584 </v>
   <v>       0.35738865       0.86316550       0.52982527 </v>
   <v>       0.40446288       0.95986387       0.49790853 </v>
   <v>       0.56263348       0.20458735       0.43893441 </v>
   <v>       0.67641257       0.38415513       0.44398051 </v>
   <v>       0.61278315       0.29086326       0.44300520 </v>
   <v>       0.70612350       0.32098455       0.44076173 </v>
   <v>       0.32182257       0.61239203       0.55671807 </v>
   <v>       0.38463478       0.70593947       0.55556901 </v>
   <v>       0.29111975       0.67479127       0.55498467 </v>
   <v>       0.43302859       0.48430248       0.52648227 </v>
   <v>       0.39986221       0.58797999       0.56387139 </v>
   <v>       0.05118996       0.56412907       0.52347863 </v>
   <v>       0.18824080       0.59719586       0.56221645 </v>
   <v>       0.51292262       0.94619609       0.51814649 </v>
   <v>       0.40987695       0.80876085       0.55815959 </v>
   <v>       0.56677900       0.51378165       0.47976648 </v>
   <v>       0.59939147       0.40999321       0.44035318 </v>
   <v>       0.94635849       0.43104484       0.47428684 </v>
   <v>       0.80955835       0.39850239       0.43463900 </v>
   <v>       0.48260197       0.04994664       0.47372499 </v>
   <v>       0.58621073       0.18780282       0.43613138 </v>
  </varray>
 </structure>
 <calculation>
  <scstep>
   <time name="dav">  537.96  543.35</time>
   <time name="total">  538.34  543.75</time>
   <energy>
    <i name="alphaZ">     27.28594996 </i>
    <i name="ewald">  33978.51098801 </i>
    <i name="hartreedc"> -43249.46735600 </i>
    <i name="XCdc">   1045.13733051 </i>
    <i name="pawpsdc">  27500.84168161 </i>
    <i name="pawaedc"> -27556.15158831 </i>
    <i name="eentropy">     -0.00000000 </i>
    <i name="bandstr">  -3794.93341393 </i>
    <i name="atom">  11391.37247614 </i>
    <i name="e_fr_energy">   -657.40393202 </i>
    <i name="e_wo_entrp">   -657.40393202 </i>
    <i name="e_0_energy">   -657.40393202 </i>
   </energy>
  </scstep>
  <scstep>
   <time name="dav">  616.52  622.74</time>
   <time name="total">  616.54  622.76</time>
   <energy>
    <i name="e_fr_energy">   -657.97672186 </i>
    <i name="e_wo_entrp">   -657.97672186 </i>
    <i name="e_0_energy">   -657.97672186 </i>
   </energy>
  </scstep>
  <scstep>
   <time name="dav">  668.24  674.89</time>
   <time name="total">  668.28  674.92</time>
   <energy>
    <i name="e_fr_energy">   -657.99052569 </i>
    <i name="e_wo_entrp">   -657.99052569 </i>
    <i name="e_0_energy">   -657.99052569 </i>
   </energy>
  </scstep>
  <scstep>
   <time name="dav">  610.40  616.58</time>
   <time name="total">  610.43  616.62</time>
   <energy>
    <i name="e_fr_energy">   -657.99085614 </i>
    <i name="e_wo_entrp">   -657.99085614 </i>
    <i name="e_0_energy">   -657.99085614 </i>
   </energy>
  </scstep>
  <scstep>
   <time name="dav">  585.57  591.63</time>
   <time name="total">  585.59  591.64</time>
   <energy>
    <i name="e_fr_energy">   -657.99087100 </i>
    <i name="e_wo_entrp">   -657.99087100 </i>
    <i name="e_0_energy">   -657.99087100 </i>
   </energy>
  </scstep>
  <scstep>
   <time name="dav">  493.19  498.37</time>
   <time name="total">  493.21  498.38</time>
   <energy>
    <i name="alphaZ">     27.28594996 </i>
    <i name="ewald">  33978.51098801 </i>
    <i name="hartreedc"> -43249.46735600 </i>
    <i name="XCdc">   1045.13733051 </i>
    <i name="pawpsdc">  27500.84168161 </i>
    <i name="pawaedc"> -27556.15158831 </i>
    <i name="eentropy">     -0.00000000 </i>
    <i name="bandstr">  -3795.52035370 </i>
    <i name="atom">  11391.37247614 </i>
    <i name="e_fr_energy">   -657.99087179 </i>
    <i name="e_wo_entrp">   -657.99087179 </i>
    <i name="e_0_energy">   -657.99087179 </i>
   </energy>
  </scstep>
  <structure>
   <crystal>
    <varray name="basis" >
     <v>      28.87384308      -0.08265273       0.00000000 </v>
     <v>     -14.50915880      25.00881980       0.00000000 </v>
     <v>       0.00000000       0.00000000      20.00000000 </v>
    </varray>
    <i name="volume">  14418.03034043 </i>
    <varray name="rec_basis" >
     <v>       0.03469104       0.02012641       0.00000000 </v>
     <v>       0.00011465       0.04005241       0.00000000 </v>
     <v>       0.00000000       0.00000000       0.05000000 </v>
    </varray>
   </crystal>
   <varray name="positions" >
    <v>       0.71502421       0.37097963       0.44229058 </v>
    <v>       0.62625627       0.34278582       0.44428896 </v>
    <v>       0.65403740       0.28223986       0.44159724 </v>
    <v>       0.64251669       0.22542466       0.44226156 </v>
    <v>       0.77198120       0.41666284       0.44351717 </v>
    <v>       0.28279067       0.62500301       0.55584447 </v>
    <v>       0.37178264       0.65418085       0.55626804 </v>
    <v>       0.34300411       0.71397242       0.55463906 </v>
    <v>       0.35378050       0.77050655       0.55163539 </v>
    <v>       0.22594808       0.57907028       0.55435080 </v>
    <v>       0.43063997       0.56575003       0.54627233 </v>
    <v>       0.48600124       0.51370607       0.51231236 </v>
    <v>       0.40684063       0.50941428       0.54277272 </v>
    <v>       0.48633874       0.42823295       0.49074804 </v>
    <v>       0.51370084       0.40193084       0.47316601 </v>
    <v>       0.13506274       0.56651172       0.54403064 </v>
    <v>       0.02739093       0.51136842       0.50862362 </v>
    <v>       0.10262230       0.59024053       0.54037886 </v>
    <v>       0.94166508       0.51121199       0.48607095 </v>
    <v>       0.88784602       0.48398593       0.46794801 </v>
    <v>       0.43182072       0.86172968       0.53988864 </v>
    <v>       0.48319478       0.96928642       0.50484185 </v>
    <v>       0.48814809       0.89480973       0.53483926 </v>
    <v>       0.56838186       0.05579168       0.48171921 </v>
    <v>       0.59451333       0.10979693       0.46496343 </v>
    <v>       0.58079476       0.35393822       0.44755971 </v>
    <v>       0.41779248       0.64375864       0.55507322 </v>
    <v>       0.48583960       0.59618676       0.53200760 </v>
    <v>       0.51333127       0.56989308       0.51497984 </v>
    <v>       0.51378523       0.48441228       0.49381356 </v>
    <v>       0.56888382       0.43232392       0.45879779 </v>
    <v>       0.59287129       0.48865177       0.46304453 </v>
    <v>       0.10999639       0.51147181       0.52933296 </v>
    <v>       0.05610680       0.48409382       0.51148828 </v>
    <v>       0.97023844       0.48380530       0.48916761 </v>
    <v>       0.86270398       0.42895722       0.45315068 </v>
    <v>       0.89497985       0.40507297       0.45709572 </v>
    <v>       0.40104334       0.88597642       0.52645303 </v>
    <v>       0.42698730       0.93981825       0.50884300 </v>
    <v>       0.51218633       0.02655614       0.48618150 </v>
    <v>       0.56395179       0.13448264       0.45288623 </v>
    <v>       0.50758792       0.10151383       0.45778921 </v>
    <v>       0.56010497       0.33764819       0.49603609 </v>
    <v>       0.65962690       0.22022107       0.48951106 </v>
    <v>       0.77754843       0.43764155       0.49196301 </v>
    <v>       0.44685316       0.66921294       0.59383408 </v>
    <v>       0.32935758       0.77504092       0.59089536 </v>
    <v>       0.22178915       0.55017535       0.59347732 </v>
    <v>       0.44365545       0.40603286       0.50234267 </v>
    <v>       0.49231289       0.35829673       0.47052035 </v>
    <v>       0.36397526       0.48410817       0.55396778 </v>
    <v>       0.35926906       0.56391796       0.56269103 </v>
    <v>       0.96237697       0.55375065       0.49811905 </v>
    <v>       0.86576341       0.50538134       0.46520215 </v>
    <v>       0.12039856       0.63296509       0.55195871 </v>
    <v>       0.20525874       0.63774943       0.56056134 </v>
    <v>       0.59075026       0.03544603       0.49175404 </v>
    <v>       0.63816139       0.13239499       0.46129105 </v>
    <v>       0.51372440       0.87764683       0.54514837 </v>
    <v>       0.43384659       0.79235840       0.55686739 </v>
    <v>       0.55127048       0.32935859       0.40873298 </v>
    <v>       0.66630017       0.22122372       0.40183332 </v>
    <v>       0.77596968       0.44577174       0.40478203 </v>
    <v>       0.43877702       0.65948772       0.50662340 </v>
    <v>       0.33696602       0.77454589       0.50347456 </v>
    <v>       0.22078414       0.55790573       0.50612725 </v>
    <v>       0.63576871       0.51391214       0.45201930 </v>
    <v>       0.50713052       0.63983245       0.53429242 </v>
    <v>       0.55601572       0.59211579       0.50338240 </v>
    <v>       0.64002016       0.43369694       0.44160885 </v>
    <v>       0.87714422       0.36234342       0.44550447 </v>
    <v>       0.13221136       0.49020225       0.53183681 </v>
    <v>       0.03548234       0.44156495       0.49940134 </v>
    <v>       0.79252787       0.35794128       0.43546697 </v>
    <v>       0.48216433       0.11894439       0.44808584 </v>
    <v>       0.35738865       0.86316550       0.52982527 </v>
    <v>       0.40446288       0.95986387       0.49790853 </v>
    <v>       0.56263348       0.20458735       0.43893441 </v>
    <v>       0.67641257       0.38415513       0.44398051 </v>
    <v>       0.61278315       0.29086326       0.44300520 </v>
    <v>       0.70612350       0.32098455       0.44076173 </v>
    <v>       0.32182257       0.61239203       0.55671807 </v>
    <v>       0.38463478       0.70593947       0.55556901 </v>
    <v>       0.29111975       0.67479127       0.55498467 </v>
    <v>       0.43302859       0.48430248       0.52648227 </v>
    <v>       0.39986221       0.58797999       0.56387139 </v>
    <v>       0.05118996       0.56412907       0.52347863 </v>
    <v>       0.18824080       0.59719586       0.56221645 </v>
    <v>       0.51292262       0.94619609       0.51814649 </v>
    <v>       0.40987695       0.80876085       0.55815959 </v>
    <v>       0.56677900       0.51378165       0.47976648 </v>
    <v>       0.59939147       0.40999321       0.44035318 </v>
    <v>       0.94635849       0.43104484       0.47428684 </v>
    <v>       0.80955835       0.39850239       0.43463900 </v>
    <v>       0.48260197       0.04994664       0.47372499 </v>
    <v>       0.58621073       0.18780282       0.43613138 </v>
   </varray>
  </structure>
  <varray name="forces" >
   <v>      -0.00317019       0.00303613      -0.00055418 </v>
   <v>      -0.00287685      -0.00059029       0.00036914 </v>
   <v>      -0.00026743      -0.00269995       0.00006814 </v>
   <v>       0.00209441       0.00034955      -0.00161741 </v>
   <v>       0.00005411      -0.00236232      -0.00056272 </v>
   <v>       0.00292505      -0.00327923       0.00159543 </v>
   <v>      -0.00335069      -0.00101839       0.00192674 </v>
   <v>      -0.00268654       0.00201723       0.00107855 </v>
   <v>       0.00215074      -0.00302541       0.00114030 </v>
   <v>      -0.00167148      -0.00207148       0.00038521 </v>
   <v>       0.00461709       0.00217827      -0.00201154 </v>
   <v>       0.00051577      -0.00050501      -0.00146635 </v>
   <v>      -0.00387495      -0.00345310      -0.00166938 </v>
   <v>       0.00117901       0.00103514      -0.00329528 </v>
   <v>       0.00047980      -0.00150648      -0.00243331 </v>
   <v>      -0.00649464       0.00036832      -0.00000864 </v>
   <v>       0.00502652      -0.00536428      -0.00506902 </v>
   <v>       0.00511211      -0.00222230      -0.00327098 </v>
   <v>       0.00096236       0.00036096      -0.00109261 </v>
   <v>      -0.00163127       0.00488763      -0.00006797 </v>
   <v>      -0.00137433       0.00126629       0.00021220 </v>
   <v>       0.00065072       0.00115611       0.00109013 </v>
   <v>       0.00027892      -0.00103532       0.00228753 </v>
   <v>      -0.00266485      -0.00346932       0.00013350 </v>
   <v>       0.00533673       0.00433348      -0.00470140 </v>
   <v>       0.00069437       0.00233447      -0.00038255 </v>
   <v>       0.00237149       0.00314507       0.00050995 </v>
   <v>      -0.00246439      -0.00367855       0.00156876 </v>
   <v>      -0.00083007       0.00482239      -0.00023749 </v>
   <v>      -0.00204430      -0.00134315      -0.00218516 </v>
   <v>       0.00050816       0.00526468      -0.00145988 </v>
   <v>      -0.00081921      -0.00198087       0.00056533 </v>
   <v>       0.00194892      -0.00570281       0.00126831 </v>
   <v>      -0.00384880       0.00673454       0.00104725 </v>
   <v>      -0.00135653       0.00041442      -0.00208535 </v>
   <v>      -0.00104599      -0.00456340      -0.00242096 </v>
   <v>      -0.00070306      -0.00062699       0.00046164 </v>
   <v>       0.00287642      -0.00351105      -0.00019712 </v>
   <v>      -0.00289745      -0.00025445      -0.00046195 </v>
   <v>       0.00007092       0.00399005       0.00327937 </v>
   <v>      -0.00380746       0.00218592       0.00059846 </v>
   <v>       0.00033688       0.00131974      -0.00021597 </v>
   <v>       0.00023267       0.00021168      -0.00035069 </v>
   <v>      -0.00358476      -0.00184344      -0.00159776 </v>
   <v>       0.00053453      -0.00000833      -0.00049491 </v>
   <v>      -0.00097783       0.00033078       0.00221797 </v>
   <v>      -0.00035114      -0.00223455       0.00290578 </v>
   <v>      -0.00134615       0.00011016       0.00328171 </v>
   <v>       0.00205069      -0.00007726      -0.00192497 </v>
   <v>      -0.00090249       0.00149605      -0.00451728 </v>
   <v>      -0.00016519       0.00244845      -0.00407530 </v>
   <v>       0.00122789      -0.00043697      -0.00253834 </v>
   <v>      -0.00016352       0.00255572      -0.00137673 </v>
   <v>       0.00162781      -0.00031795      -0.00226474 </v>
   <v>      -0.00192543       0.00213079      -0.00105169 </v>
   <v>      -0.00072516      -0.00228600      -0.00051305 </v>
   <v>       0.00058807       0.00050806      -0.00131582 </v>
   <v>      -0.00358931      -0.00174204      -0.00156160 </v>
   <v>       0.00133651       0.00075751       0.00078849 </v>
   <v>       0.00094743       0.00059496      -0.00094333 </v>
   <v>      -0.00136991       0.00096224      -0.00174163 </v>
   <v>       0.00233435       0.00164777      -0.00136521 </v>
   <v>      -0.00145900       0.00098450      -0.00183974 </v>
   <v>       0.00157453      -0.00062033       0.00426340 </v>
   <v>      -0.00115195       0.00182051      -0.00029291 </v>
   <v>       0.00146442       0.00067343       0.00011328 </v>
   <v>       0.00085047       0.00209537       0.00249198 </v>
   <v>       0.00083867       0.00048710       0.00280824 </v>
   <v>      -0.00038439       0.00102999       0.00360511 </v>
   <v>       0.00179970       0.00207933       0.00115046 </v>
   <v>       0.00184179      -0.00285919       0.00017074 </v>
   <v>       0.00084866      -0.00096856       0.00220482 </v>
   <v>       0.00071348      -0.00273134       0.00233451 </v>
   <v>       0.00080209      -0.00456698       0.00150061 </v>
   <v>      -0.00022250      -0.00076940       0.00347215 </v>
   <v>      -0.00101224       0.00029994       0.00135601 </v>
   <v>       0.00052865      -0.00030639       0.00179175 </v>
   <v>      -0.00207045       0.00045777       0.00097222 </v>
   <v>       0.00428547       0.00042085       0.00143387 </v>
   <v>      -0.00095421      -0.00316120       0.00071388 </v>
   <v>       0.00099619      -0.00002556      -0.00080110 </v>
   <v>       0.00181543       0.00317820       0.00202935 </v>
   <v>       0.00467948      -0.00104380       0.00034761 </v>
   <v>      -0.00149837       0.00039203       0.00256342 </v>
   <v>       0.00709265       0.00188259      -0.00056861 </v>
   <v>      -0.00507423      -0.00143100      -0.00043800 </v>
   <v>      -0.00120381       0.00398022      -0.00103723 </v>
   <v>       0.00624560       0.00175272       0.00015341 </v>
   <v>       0.00064559       0.00144490      -0.00060058 </v>
   <v>       0.00017621      -0.00093781       0.00096850 </v>
   <v>      -0.00065670       0.00301686      -0.00055194 </v>
   <v>      -0.00643309      -0.00682592       0.00021122 </v>
   <v>       0.00008826      -0.00387223       0.00040366 </v>
   <v>      -0.00337315       0.00598148       0.00038364 </v>
   <v>      -0.00011836      -0.00104706       0.00376271 </v>
   <v>       0.00223607      -0.00255487       0.00124397 </v>
  </varray>
  <varray name="stress" >
   <v>       0.00141557      -0.00102663      -0.00590604 </v>
   <v>      -0.00102663       0.00349962       0.00212691 </v>
   <v>      -0.00590604       0.00212691      -0.15938748 </v>
  </varray>
  <energy>
   <i name="e_fr_energy">   -659.62476224 </i>
   <i name="e_wo_entrp">   -659.62476224 </i>
   <i name="e_0_energy">     -0.00000000 </i>
  </energy>
  <time name="totalsc"> 4074.43 4117.71</time>
  <eigenvalues>
   <array>
    <dimension dim="1">band</dimension>
    <dimension dim="2">kpoint</dimension>
    <dimension dim="3">spin</dimension>
    <field>eigene</field>
    <field>occ</field>
    <set>
     <set comment="spin 1">
      <set comment="kpoint 1">
       <r>  -26.3263    1.0000 </r>
       <r>  -26.3214    1.0000 </r>
       <r>  -23.9524    1.0000 </r>
       <r>  -23.9507    1.0000 </r>
       <r>  -23.9386    1.0000 </r>
       <r>  -23.9367    1.0000 </r>
       <r>  -23.6910    1.0000 </r>
       <r>  -23.6441    1.0000 </r>
       <r>  -23.2371    1.0000 </r>
       <r>  -23.2352    1.0000 </r>
       <r>  -23.0601    1.0000 </r>
       <r>  -23.0598    1.0000 </r>
       <r>  -23.0204    1.0000 </r>
       <r>  -22.8128    1.0000 </r>
       <r>  -22.8118    1.0000 </r>
       <r>  -22.6287    1.0000 </r>
       <r>  -22.5634    1.0000 </r>
       <r>  -22.5629    1.0000 </r>
       <r>  -19.6391    1.0000 </r>
       <r>  -19.6358    1.0000 </r>
       <r>  -19.6308    1.0000 </r>
       <r>  -19.6288    1.0000 </r>
       <r>  -19.4714    1.0000 </r>
       <r>  -19.4041    1.0000 </r>
       <r>  -19.0792    1.0000 </r>
       <r>  -19.0786    1.0000 </r>
       <r>  -19.0593    1.0000 </r>
       <r>  -18.9338    1.0000 </r>
       <r>  -18.9323    1.0000 </r>
       <r>  -18.5616    1.0000 </r>
       <r>  -18.3566    1.0000 </r>
       <r>  -18.3550    1.0000 </r>
       <r>  -17.8214    1.0000 </r>
       <r>  -17.3730    1.0000 </r>
       <r>  -17.3714    1.0000 </r>
       <r>  -16.9417    1.0000 </r>
       <r>  -16.2577    1.0000 </r>
       <r>  -16.2550    1.0000 </r>
       <r>  -16.0012    1.0000 </r>
       <r>  -15.9983    1.0000 </r>
       <r>  -15.6782    1.0000 </r>
       <r>  -15.5563    1.0000 </r>
       <r>  -15.3974    1.0000 </r>
       <r>  -15.3967    1.0000 </r>
       <r>  -15.2418    1.0000 </r>
       <r>  -15.2387    1.0000 </r>
       <r>  -15.0939    1.0000 </r>
       <r>  -14.8320    1.0000 </r>
       <r>  -14.6489    1.0000 </r>
       <r>  -14.6484    1.0000 </r>
       <r>  -14.3111    1.0000 </r>
       <r>  -14.2116    1.0000 </r>
       <r>  -14.2096    1.0000 </r>
       <r>  -14.0137    1.0000 </r>
       <r>  -13.6215    1.0000 </r>
       <r>  -13.3775    1.0000 </r>
       <r>  -13.0957    1.0000 </r>
       <r>  -13.0914    1.0000 </r>
       <r>  -13.0560    1.0000 </r>
       <r>  -13.0532    1.0000 </r>
       <r>  -12.6795    1.0000 </r>
       <r>  -12.6217    1.0000 </r>
       <r>  -12.5056    1.0000 </r>
       <r>  -12.3932    1.0000 </r>
       <r>  -12.3908    1.0000 </r>
       <r>  -12.3540    1.0000 </r>
       <r>  -12.3520    1.0000 </r>
       <r>  -12.2098    1.0000 </r>
       <r>  -11.9402    1.0000 </r>
       <r>  -11.9347    1.0000 </r>
       <r>  -11.8362    1.0000 </r>
       <r>  -11.6889    1.0000 </r>
       <r>  -11.6772    1.0000 </r>
       <r>  -11.6715    1.0000 </r>
       <r>  -11.6181    1.0000 </r>
       <r>  -11.6102    1.0000 </r>
       <r>  -11.2581    1.0000 </r>
       <r>  -10.9797    1.0000 </r>
       <r>  -10.9736    1.0000 </r>
       <r>  -10.6736    1.0000 </r>
       <r>  -10.5322    1.0000 </r>
       <r>  -10.5183    1.0000 </r>
       <r>  -10.4749    1.0000 </r>
       <r>  -10.4724    1.0000 </r>
       <r>  -10.4683    1.0000 </r>
       <r>  -10.4678    1.0000 </r>
       <r>  -10.4451    1.0000 </r>
       <r>  -10.3506    1.0000 </r>
       <r>  -10.2364    1.0000 </r>
       <r>  -10.2348    1.0000 </r>
       <r>  -10.0813    1.0000 </r>
       <r>  -10.0791    1.0000 </r>
       <r>   -9.9678    1.0000 </r>
       <r>   -9.8973    1.0000 </r>
       <r>   -9.8944    1.0000 </r>
       <r>   -9.8218    1.0000 </r>
       <r>   -9.8182    1.0000 </r>
       <r>   -9.8156    1.0000 </r>
       <r>   -9.7922    1.0000 </r>
       <r>   -9.7901    1.0000 </r>
       <r>   -9.7678    1.0000 </r>
       <r>   -9.5382    1.0000 </r>
       <r>   -9.5290    1.0000 </r>
       <r>   -9.3926    1.0000 </r>
       <r>   -9.3916    1.0000 </r>
       <r>   -9.2070    1.0000 </r>
       <r>   -9.0596    1.0000 </r>
       <r>   -9.0450    1.0000 </r>
       <r>   -9.0433    1.0000 </r>
       <r>   -8.8197    1.0000 </r>
       <r>   -8.8189    1.0000 </r>
       <r>   -8.8154    1.0000 </r>
       <r>   -8.5912    1.0000 </r>
       <r>   -8.5905    1.0000 </r>
       <r>   -8.4355    1.0000 </r>
       <r>   -8.4336    1.0000 </r>
       <r>   -8.3753    1.0000 </r>
       <r>   -8.3713    1.0000 </r>
       <r>   -8.3710    1.0000 </r>
       <r>   -7.9165    1.0000 </r>
       <r>   -7.8009    1.0000 </r>
       <r>   -7.7999    1.0000 </r>
       <r>   -7.2818    1.0000 </r>
       <r>   -7.2578    1.0000 </r>
       <r>   -7.2573    1.0000 </r>
       <r>   -6.9245    1.0000 </r>
       <r>   -6.9217    1.0000 </r>
       <r>   -6.9186    1.0000 </r>
       <r>   -6.9177    1.0000 </r>
       <r>   -6.4972    1.0000 </r>
       <r>   -6.4962    1.0000 </r>
       <r>   -6.4957    1.0000 </r>
       <r>   -6.4851    1.0000 </r>
       <r>   -6.4844    1.0000 </r>
       <r>   -6.4841    1.0000 </r>
       <r>   -5.6319    1.0000 </r>
       <r>   -5.6296    1.0000 </r>
       <r>   -5.6280    1.0000 </r>
       <r>   -5.2986    1.0000 </r>
       <r>   -5.2964    1.0000 </r>
       <r>   -5.2881    1.0000 </r>
       <r>   -5.2148    1.0000 </r>
       <r>   -5.2129    1.0000 </r>
       <r>   -5.2122    1.0000 </r>
       <r>   -4.3299    1.0000 </r>
       <r>   -4.3271    1.0000 </r>
       <r>   -4.3148    1.0000 </r>
       <r>   -2.7896    0.0000 </r>
       <r>   -2.7865    0.0000 </r>
       <r>   -2.7737    0.0000 </r>
       <r>   -2.7712    0.0000 </r>
       <r>   -1.4443    0.0000 </r>
       <r>   -1.4293    0.0000 </r>
       <r>   -1.4275    0.0000 </r>
       <r>   -1.4123    0.0000 </r>
       <r>   -1.3963    0.0000 </r>
       <r>   -1.3953    0.0000 </r>
       <r>   -0.9627    0.0000 </r>
       <r>   -0.9433    0.0000 </r>
       <r>   -0.9420    0.0000 </r>
       <r>   -0.6978    0.0000 </r>
       <r>   -0.6749    0.0000 </r>
       <r>   -0.3138    0.0000 </r>
       <r>   -0.3119    0.0000 </r>
       <r>   -0.3113    0.0000 </r>
       <r>   -0.3094    0.0000 </r>
       <r>   -0.0277    0.0000 </r>
       <r>   -0.0071    0.0000 </r>
       <r>    0.0949    0.0000 </r>
       <r>    0.1616    0.0000 </r>
       <r>    0.1648    0.0000 </r>
       <r>    0.2902    0.0000 </r>
       <r>    0.2925    0.0000 </r>
       <r>    0.3039    0.0000 </r>
       <r>    0.3070    0.0000 </r>
       <r>    0.3096    0.0000 </r>
       <r>    0.3118    0.0000 </r>
       <r>    0.4644    0.0000 </r>
       <r>    0.4679    0.0000 </r>
       <r>    0.5092    0.0000 </r>
       <r>    0.5133    0.0000 </r>
       <r>    0.5761    0.0000 </r>
       <r>    0.5983    0.0000 </r>
       <r>    0.6019    0.0000 </r>
       <r>    0.6206    0.0000 </r>
       <r>    0.6243    0.0000 </r>
       <r>    0.6733    0.0000 </r>
       <r>    0.6751    0.0000 </r>
       <r>    0.6811    0.0000 </r>
       <r>    0.7648    0.0000 </r>
       <r>    0.7672    0.0000 </r>
       <r>    0.7814    0.0000 </r>
       <r>    0.7936    0.0000 </r>
       <r>    0.8198    0.0000 </r>
       <r>    0.8214    0.0000 </r>
       <r>    0.8286    0.0000 </r>
       <r>    0.8382    0.0000 </r>
       <r>    0.8453    0.0000 </r>
       <r>    0.8958    0.0000 </r>
       <r>    0.9758    0.0000 </r>
       <r>    0.9793    0.0000 </r>
       <r>    1.0192    0.0000 </r>
       <r>    1.0372    0.0000 </r>
       <r>    1.0400    0.0000 </r>
       <r>    1.0984    0.0000 </r>
       <r>    1.0996    0.0000 </r>
       <r>    1.1088    0.0000 </r>
       <r>    1.1122    0.0000 </r>
      </set>
      <set comment="kpoint 2">
       <r>  -26.3263    1.0000 </r>
       <r>  -26.3214    1.0000 </r>
       <r>  -23.9524    1.0000 </r>
       <r>  -23.9507    1.0000 </r>
       <r>  -23.9386    1.0000 </r>
       <r>  -23.9367    1.0000 </r>
       <r>  -23.6909    1.0000 </r>
       <r>  -23.6442    1.0000 </r>
       <r>  -23.2370    1.0000 </r>
       <r>  -23.2351    1.0000 </r>
       <r>  -23.0614    1.0000 </r>
       <r>  -23.0598    1.0000 </r>
       <r>  -23.0191    1.0000 </r>
       <r>  -22.8130    1.0000 </r>
       <r>  -22.8118    1.0000 </r>
       <r>  -22.6285    1.0000 </r>
       <r>  -22.5634    1.0000 </r>
       <r>  -22.5629    1.0000 </r>
       <r>  -19.6391    1.0000 </r>
       <r>  -19.6358    1.0000 </r>
       <r>  -19.6308    1.0000 </r>
       <r>  -19.6288    1.0000 </r>
       <r>  -19.4713    1.0000 </r>
       <r>  -19.4042    1.0000 </r>
       <r>  -19.0792    1.0000 </r>
       <r>  -19.0786    1.0000 </r>
       <r>  -19.0593    1.0000 </r>
       <r>  -18.9337    1.0000 </r>
       <r>  -18.9320    1.0000 </r>
       <r>  -18.5630    1.0000 </r>
       <r>  -18.3565    1.0000 </r>
       <r>  -18.3536    1.0000 </r>
       <r>  -17.8224    1.0000 </r>
       <r>  -17.3729    1.0000 </r>
       <r>  -17.3705    1.0000 </r>
       <r>  -16.9423    1.0000 </r>
       <r>  -16.2574    1.0000 </r>
       <r>  -16.2549    1.0000 </r>
       <r>  -16.0014    1.0000 </r>
       <r>  -15.9983    1.0000 </r>
       <r>  -15.6779    1.0000 </r>
       <r>  -15.5561    1.0000 </r>
       <r>  -15.3983    1.0000 </r>
       <r>  -15.3971    1.0000 </r>
       <r>  -15.2418    1.0000 </r>
       <r>  -15.2386    1.0000 </r>
       <r>  -15.0930    1.0000 </r>
       <r>  -14.8316    1.0000 </r>
       <r>  -14.6489    1.0000 </r>
       <r>  -14.6487    1.0000 </r>
       <r>  -14.3131    1.0000 </r>
       <r>  -14.2109    1.0000 </r>
       <r>  -14.2085    1.0000 </r>
       <r>  -14.0137    1.0000 </r>
       <r>  -13.6212    1.0000 </r>
       <r>  -13.3780    1.0000 </r>
       <r>  -13.0957    1.0000 </r>
       <r>  -13.0913    1.0000 </r>
       <r>  -13.0559    1.0000 </r>
       <r>  -13.0532    1.0000 </r>
       <r>  -12.6793    1.0000 </r>
       <r>  -12.6217    1.0000 </r>
       <r>  -12.5055    1.0000 </r>
       <r>  -12.3933    1.0000 </r>
       <r>  -12.3912    1.0000 </r>
       <r>  -12.3538    1.0000 </r>
       <r>  -12.3516    1.0000 </r>
       <r>  -12.2099    1.0000 </r>
       <r>  -11.9402    1.0000 </r>
       <r>  -11.9348    1.0000 </r>
       <r>  -11.8363    1.0000 </r>
       <r>  -11.6888    1.0000 </r>
       <r>  -11.6772    1.0000 </r>
       <r>  -11.6715    1.0000 </r>
       <r>  -11.6180    1.0000 </r>
       <r>  -11.6098    1.0000 </r>
       <r>  -11.2589    1.0000 </r>
       <r>  -10.9794    1.0000 </r>
       <r>  -10.9730    1.0000 </r>
       <r>  -10.6739    1.0000 </r>
       <r>  -10.5324    1.0000 </r>
       <r>  -10.5190    1.0000 </r>
       <r>  -10.4746    1.0000 </r>
       <r>  -10.4723    1.0000 </r>
       <r>  -10.4682    1.0000 </r>
       <r>  -10.4676    1.0000 </r>
       <r>  -10.4448    1.0000 </r>
       <r>  -10.3507    1.0000 </r>
       <r>  -10.2363    1.0000 </r>
       <r>  -10.2348    1.0000 </r>
       <r>  -10.0815    1.0000 </r>
       <r>  -10.0791    1.0000 </r>
       <r>   -9.9674    1.0000 </r>
       <r>   -9.8972    1.0000 </r>
       <r>   -9.8944    1.0000 </r>
       <r>   -9.8227    1.0000 </r>
       <r>   -9.8176    1.0000 </r>
       <r>   -9.8158    1.0000 </r>
       <r>   -9.7920    1.0000 </r>
       <r>   -9.7899    1.0000 </r>
       <r>   -9.7680    1.0000 </r>
       <r>   -9.5382    1.0000 </r>
       <r>   -9.5290    1.0000 </r>
       <r>   -9.3925    1.0000 </r>
       <r>   -9.3913    1.0000 </r>
       <r>   -9.2073    1.0000 </r>
       <r>   -9.0596    1.0000 </r>
       <r>   -9.0451    1.0000 </r>
       <r>   -9.0433    1.0000 </r>
       <r>   -8.8197    1.0000 </r>
       <r>   -8.8189    1.0000 </r>
       <r>   -8.8154    1.0000 </r>
       <r>   -8.5910    1.0000 </r>
       <r>   -8.5905    1.0000 </r>
       <r>   -8.4356    1.0000 </r>
       <r>   -8.4336    1.0000 </r>
       <r>   -8.3753    1.0000 </r>
       <r>   -8.3713    1.0000 </r>
       <r>   -8.3710    1.0000 </r>
       <r>   -7.9163    1.0000 </r>
       <r>   -7.8011    1.0000 </r>
       <r>   -7.7999    1.0000 </r>
       <r>   -7.2818    1.0000 </r>
       <r>   -7.2579    1.0000 </r>
       <r>   -7.2573    1.0000 </r>
       <r>   -6.9245    1.0000 </r>
       <r>   -6.9217    1.0000 </r>
       <r>   -6.9186    1.0000 </r>
       <r>   -6.9177    1.0000 </r>
       <r>   -6.4972    1.0000 </r>
       <r>   -6.4962    1.0000 </r>
       <r>   -6.4957    1.0000 </r>
       <r>   -6.4851    1.0000 </r>
       <r>   -6.4844    1.0000 </r>
       <r>   -6.4841    1.0000 </r>
       <r>   -5.6319    1.0000 </r>
       <r>   -5.6296    1.0000 </r>
       <r>   -5.6280    1.0000 </r>
       <r>   -5.2986    1.0000 </r>
       <r>   -5.2964    1.0000 </r>
       <r>   -5.2881    1.0000 </r>
       <r>   -5.2148    1.0000 </r>
       <r>   -5.2129    1.0000 </r>
       <r>   -5.2122    1.0000 </r>
       <r>   -4.3299    1.0000 </r>
       <r>   -4.3271    1.0000 </r>
       <r>   -4.3148    1.0000 </r>
       <r>   -2.7896    0.0000 </r>
       <r>   -2.7865    0.0000 </r>
       <r>   -2.7737    0.0000 </r>
       <r>   -2.7712    0.0000 </r>
       <r>   -1.4443    0.0000 </r>
       <r>   -1.4294    0.0000 </r>
       <r>   -1.4276    0.0000 </r>
       <r>   -1.4122    0.0000 </r>
       <r>   -1.3963    0.0000 </r>
       <r>   -1.3953    0.0000 </r>
       <r>   -0.9627    0.0000 </r>
       <r>   -0.9433    0.0000 </r>
       <r>   -0.9420    0.0000 </r>
       <r>   -0.6978    0.0000 </r>
       <r>   -0.6750    0.0000 </r>
       <r>   -0.3144    0.0000 </r>
       <r>   -0.3130    0.0000 </r>
       <r>   -0.3102    0.0000 </r>
       <r>   -0.3088    0.0000 </r>
       <r>   -0.0276    0.0000 </r>
       <r>   -0.0072    0.0000 </r>
       <r>    0.0950    0.0000 </r>
       <r>    0.1614    0.0000 </r>
       <r>    0.1646    0.0000 </r>
       <r>    0.2894    0.0000 </r>
       <r>    0.2924    0.0000 </r>
       <r>    0.3024    0.0000 </r>
       <r>    0.3072    0.0000 </r>
       <r>    0.3111    0.0000 </r>
       <r>    0.3128    0.0000 </r>
       <r>    0.4645    0.0000 </r>
       <r>    0.4679    0.0000 </r>
       <r>    0.5093    0.0000 </r>
       <r>    0.5132    0.0000 </r>
       <r>    0.5758    0.0000 </r>
       <r>    0.5982    0.0000 </r>
       <r>    0.6015    0.0000 </r>
       <r>    0.6207    0.0000 </r>
       <r>    0.6245    0.0000 </r>
       <r>    0.6697    0.0000 </r>
       <r>    0.6789    0.0000 </r>
       <r>    0.6817    0.0000 </r>
       <r>    0.7640    0.0000 </r>
       <r>    0.7672    0.0000 </r>
       <r>    0.7832    0.0000 </r>
       <r>    0.7932    0.0000 </r>
       <r>    0.8175    0.0000 </r>
       <r>    0.8205    0.0000 </r>
       <r>    0.8306    0.0000 </r>
       <r>    0.8396    0.0000 </r>
       <r>    0.8455    0.0000 </r>
       <r>    0.8965    0.0000 </r>
       <r>    0.9738    0.0000 </r>
       <r>    0.9778    0.0000 </r>
       <r>    1.0225    0.0000 </r>
       <r>    1.0364    0.0000 </r>
       <r>    1.0400    0.0000 </r>
       <r>    1.0941    0.0000 </r>
       <r>    1.0987    0.0000 </r>
       <r>    1.1083    0.0000 </r>
       <r>    1.1133    0.0000 </r>
      </set>
      <set comment="kpoint 3">
       <r>  -26.3263    1.0000 </r>
       <r>  -26.3214    1.0000 </r>
       <r>  -23.9524    1.0000 </r>
       <r>  -23.9507    1.0000 </r>
       <r>  -23.9387    1.0000 </r>
       <r>  -23.9368    1.0000 </r>
       <r>  -23.6907    1.0000 </r>
       <r>  -23.6444    1.0000 </r>
       <r>  -23.2367    1.0000 </r>
       <r>  -23.2349    1.0000 </r>
       <r>  -23.0649    1.0000 </r>
       <r>  -23.0598    1.0000 </r>
       <r>  -23.0155    1.0000 </r>
       <r>  -22.8136    1.0000 </r>
       <r>  -22.8120    1.0000 </r>
       <r>  -22.6280    1.0000 </r>
       <r>  -22.5636    1.0000 </r>
       <r>  -22.5629    1.0000 </r>
       <r>  -19.6391    1.0000 </r>
       <r>  -19.6358    1.0000 </r>
       <r>  -19.6308    1.0000 </r>
       <r>  -19.6288    1.0000 </r>
       <r>  -19.4711    1.0000 </r>
       <r>  -19.4046    1.0000 </r>
[...]
       <r>   -24.5782     0.0000     4.0000 </r>
       <r>   -24.4775     0.0000     4.0000 </r>
       <r>   -24.3768     0.0000     4.0000 </r>
       <r>   -24.2761     0.0000     4.0000 </r>
       <r>   -24.1754     0.0000     4.0000 </r>
       <r>   -24.0748     0.0000     4.0000 </r>
       <r>   -23.9741     0.0192     4.0019 </r>
       <r>   -23.8734    79.4409    12.0000 </r>
       <r>   -23.7727     0.0000    12.0000 </r>
       <r>   -23.6720    15.4017    13.5506 </r>
       <r>   -23.5714     3.6407    16.0000 </r>
       <r>   -23.4707     0.0000    16.0000 </r>
       <r>   -23.3700     0.0000    16.0000 </r>
       <r>   -23.2693     0.0000    16.0000 </r>
       <r>   -23.1686    42.3763    20.2664 </r>
       <r>   -23.0680     7.2124    22.1595 </r>
       <r>   -22.9673     3.3402    24.3363 </r>
       <r>   -22.8666    26.3657    27.0878 </r>
       <r>   -22.7659    24.1688    30.0000 </r>
       <r>   -22.6652     0.0000    30.0000 </r>
       <r>   -22.5646    46.1289    34.6442 </r>
       <r>   -22.4639     0.0000    36.0000 </r>
       <r>   -22.3632     0.0000    36.0000 </r>
       <r>   -22.2625     0.0000    36.0000 </r>
       <r>   -22.1619     0.0000    36.0000 </r>
       <r>   -22.0612     0.0000    36.0000 </r>
       <r>   -21.9605     0.0000    36.0000 </r>
       <r>   -21.8598     0.0000    36.0000 </r>
       <r>   -21.7591     0.0000    36.0000 </r>
       <r>   -21.6585     0.0000    36.0000 </r>
       <r>   -21.5578     0.0000    36.0000 </r>
       <r>   -21.4571     0.0000    36.0000 </r>
       <r>   -21.3564     0.0000    36.0000 </r>
       <r>   -21.2557     0.0000    36.0000 </r>
       <r>   -21.1551     0.0000    36.0000 </r>
       <r>   -21.0544     0.0000    36.0000 </r>
       <r>   -20.9537     0.0000    36.0000 </r>
       <r>   -20.8530     0.0000    36.0000 </r>
       <r>   -20.7523     0.0000    36.0000 </r>
       <r>   -20.6517     0.0000    36.0000 </r>
       <r>   -20.5510     0.0000    36.0000 </r>
       <r>   -20.4503     0.0000    36.0000 </r>
       <r>   -20.3496     0.0000    36.0000 </r>
       <r>   -20.2489     0.0000    36.0000 </r>
       <r>   -20.1483     0.0000    36.0000 </r>
       <r>   -20.0476     0.0000    36.0000 </r>
       <r>   -19.9469     0.0000    36.0000 </r>
       <r>   -19.8462     0.0000    36.0000 </r>
       <r>   -19.7455     0.0000    36.0000 </r>
       <r>   -19.6449     6.5343    36.6579 </r>
       <r>   -19.5442     0.0000    44.0000 </r>
       <r>   -19.4435    18.3628    45.8488 </r>
       <r>   -19.3428     4.6346    48.0000 </r>
       <r>   -19.2421     0.0000    48.0000 </r>
       <r>   -19.1415     0.0000    48.0000 </r>
       <r>   -19.0408    59.5872    53.9992 </r>
       <r>   -18.9401     3.1257    54.3147 </r>
       <r>   -18.8394     5.3097    56.7346 </r>
       <r>   -18.7388    14.9328    58.9368 </r>
       <r>   -18.6381     2.3479    59.6864 </r>
       <r>   -18.5374     2.6484    60.0000 </r>
       <r>   -18.4367     0.0000    60.0000 </r>
       <r>   -18.3360    21.1916    62.1336 </r>
       <r>   -18.2354     1.8513    62.3864 </r>
       <r>   -18.1347     7.8284    63.2215 </r>
       <r>   -18.0340     9.0572    64.4452 </r>
       <r>   -17.9333     8.3570    65.5748 </r>
       <r>   -17.8326     2.4257    65.8775 </r>
       <r>   -17.7320     0.0000    66.0000 </r>
       <r>   -17.6313     0.0000    66.0000 </r>
       <r>   -17.5306     0.0000    66.0000 </r>
       <r>   -17.4299     0.0000    66.0000 </r>
       <r>   -17.3292    22.3662    68.2518 </r>
       <r>   -17.2286     2.2635    68.5279 </r>
       <r>   -17.1279    15.1319    70.1403 </r>
       <r>   -17.0272    11.4939    71.5572 </r>
       <r>   -16.9265     3.6297    71.9988 </r>
       <r>   -16.8258     0.0000    72.0000 </r>
       <r>   -16.7252     0.0000    72.0000 </r>
       <r>   -16.6245     0.0000    72.0000 </r>
       <r>   -16.5238     0.0000    72.0000 </r>
       <r>   -16.4231     0.0000    72.0000 </r>
       <r>   -16.3224     0.0000    72.0000 </r>
       <r>   -16.2218    23.1174    74.3274 </r>
       <r>   -16.1211    15.4885    75.9927 </r>
       <r>   -16.0204    13.7834    77.7211 </r>
       <r>   -15.9197    19.8635    80.0000 </r>
       <r>   -15.8191     0.0000    80.0000 </r>
       <r>   -15.7184     0.0000    80.0000 </r>
       <r>   -15.6177     6.8116    80.6858 </r>
       <r>   -15.5170    21.7830    83.9932 </r>
       <r>   -15.4163    30.5965    87.0805 </r>
       <r>   -15.3157     9.0638    88.7793 </r>
       <r>   -15.2150    18.0501    90.8173 </r>
       <r>   -15.1143     8.2778    92.0001 </r>
       <r>   -15.0136     3.2762    92.3632 </r>
       <r>   -14.9129    11.3249    93.5735 </r>
       <r>   -14.8123    19.1599    95.9291 </r>
       <r>   -14.7116     0.0004    96.0000 </r>
       <r>   -14.6109    30.8980    99.1108 </r>
       <r>   -14.5102    10.5554   100.5961 </r>
       <r>   -14.4095     6.7811   101.6495 </r>
       <r>   -14.3089     2.7333   101.9752 </r>
       <r>   -14.2082     5.5412   102.5579 </r>
       <r>   -14.1075     2.6979   104.4383 </r>
       <r>   -14.0068    33.8422   107.9406 </r>
       <r>   -13.9061     0.0000   108.0000 </r>
       <r>   -13.8055     0.0000   108.0000 </r>
       <r>   -13.7048     0.0000   108.0000 </r>
       <r>   -13.6041     2.8444   108.2864 </r>
       <r>   -13.5034    18.9426   110.3405 </r>
       <r>   -13.4027     8.2549   111.7479 </r>
       <r>   -13.3021     0.9929   112.0000 </r>
       <r>   -13.2014     0.0000   112.0000 </r>
       <r>   -13.1007    11.2134   113.1290 </r>
       <r>   -13.0000    55.2886   120.0000 </r>
       <r>   -12.8993     0.0000   120.0000 </r>
       <r>   -12.7987     0.0000   120.0000 </r>
       <r>   -12.6980     0.0055   120.0006 </r>
       <r>   -12.5973    38.4043   123.9999 </r>
       <r>   -12.4966     3.4418   124.3465 </r>
       <r>   -12.3960    49.1505   129.6655 </r>
       <r>   -12.2953    24.4900   132.4656 </r>
       <r>   -12.1946    20.8289   135.9976 </r>
       <r>   -12.0939     0.0000   136.0000 </r>
       <r>   -11.9932     0.0000   136.0000 </r>
       <r>   -11.8926    39.7321   140.0002 </r>
       <r>   -11.7919    10.0935   142.0000 </r>
       <r>   -11.6912     2.0307   142.2044 </r>
       <r>   -11.5905    22.3202   150.2472 </r>
       <r>   -11.4898    10.1345   151.3703 </r>
       <r>   -11.3892    16.2709   153.3549 </r>
       <r>   -11.2885     2.7087   153.7727 </r>
       <r>   -11.1878     1.3241   154.0000 </r>
       <r>   -11.0871     0.0000   154.0000 </r>
       <r>   -10.9864     1.3021   154.1311 </r>
       <r>   -10.8858     3.0516   156.4572 </r>
       <r>   -10.7851    17.5787   158.3198 </r>
       <r>   -10.6844     9.9992   159.8069 </r>
       <r>   -10.5837     0.0007   160.0001 </r>
       <r>   -10.4830    46.7718   164.7090 </r>
       <r>   -10.3824    51.2518   173.1779 </r>
       <r>   -10.2817     6.7847   176.0000 </r>
       <r>   -10.1810    38.7043   179.8967 </r>
       <r>   -10.0803    15.8306   182.0605 </r>
       <r>    -9.9796     6.6654   184.0048 </r>
       <r>    -9.8790    51.4913   189.3841 </r>
       <r>    -9.7783    81.3322   199.2387 </r>
       <r>    -9.6776     0.0000   202.0000 </r>
       <r>    -9.5769     0.0000   202.0000 </r>
       <r>    -9.4762    39.7301   206.0000 </r>
       <r>    -9.3756    22.2094   208.2360 </r>
       <r>    -9.2749    22.9266   210.7083 </r>
       <r>    -9.1742     4.9661   212.0000 </r>
       <r>    -9.0735     0.2231   212.0225 </r>
       <r>    -8.9729    35.7471   218.0000 </r>
       <r>    -8.8722     0.0000   218.0000 </r>
       <r>    -8.7715    59.5951   224.0000 </r>
       <r>    -8.6708     0.0000   224.0000 </r>
       <r>    -8.5701    23.0160   226.3172 </r>
       <r>    -8.4695    29.5647   229.4433 </r>
       <r>    -8.3688    72.7252   236.9887 </r>
       <r>    -8.2681     0.0000   238.0000 </r>
       <r>    -8.1674     0.0000   238.0000 </r>
       <r>    -8.0667     0.0000   238.0000 </r>
       <r>    -7.9661     0.0000   238.0000 </r>
       <r>    -7.8654    14.0596   239.4155 </r>
       <r>    -7.7647    35.4245   244.0000 </r>
       <r>    -7.6640     0.0000   244.0000 </r>
       <r>    -7.5633     0.0000   244.0000 </r>
       <r>    -7.4627     0.0000   244.0000 </r>
       <r>    -7.3620     0.0000   244.0000 </r>
       <r>    -7.2613    37.9094   247.8167 </r>
       <r>    -7.1606     0.0000   250.0000 </r>
       <r>    -7.0599     0.0000   250.0000 </r>
       <r>    -6.9593     0.0000   250.0000 </r>
       <r>    -6.8586    79.4602   258.0000 </r>
       <r>    -6.7579     0.0000   258.0000 </r>
       <r>    -6.6572     0.0000   258.0000 </r>
       <r>    -6.5565     0.0000   258.0000 </r>
       <r>    -6.4559   119.1885   269.9998 </r>
       <r>    -6.3552     0.0000   270.0000 </r>
       <r>    -6.2545     0.0000   270.0000 </r>
       <r>    -6.1538     0.0000   270.0000 </r>
       <r>    -6.0532     0.0000   270.0000 </r>
       <r>    -5.9525     0.0000   270.0000 </r>
       <r>    -5.8518     0.0000   270.0000 </r>
       <r>    -5.7511     0.0000   270.0000 </r>
       <r>    -5.6504     0.1294   270.0130 </r>
       <r>    -5.5498    36.2114   276.0000 </r>
       <r>    -5.4491     0.0000   276.0000 </r>
       <r>    -5.3484     0.0000   276.0000 </r>
       <r>    -5.2477    59.5952   282.0000 </r>
       <r>    -5.1470    59.5951   288.0000 </r>
       <r>    -5.0464     0.0000   288.0000 </r>
       <r>    -4.9457     0.0000   288.0000 </r>
       <r>    -4.8450     0.0000   288.0000 </r>
       <r>    -4.7443     0.0000   288.0000 </r>
       <r>    -4.6436     0.0000   288.0000 </r>
       <r>    -4.5430     0.0000   288.0000 </r>
       <r>    -4.4423     0.0000   288.0000 </r>
       <r>    -4.3416     0.9423   288.0949 </r>
       <r>    -4.2409    19.3546   294.0000 </r>
       <r>    -4.1402     0.0000   294.0000 </r>
       <r>    -4.0396     0.0000   294.0000 </r>
       <r>    -3.9389     0.0000   294.0000 </r>
       <r>    -3.8382     0.0000   294.0000 </r>
       <r>    -3.7375     0.0000   294.0000 </r>
       <r>    -3.6368     0.0000   294.0000 </r>
       <r>    -3.5362     0.0000   294.0000 </r>
       <r>    -3.4355     0.0000   294.0000 </r>
       <r>    -3.3348     0.0000   294.0000 </r>
       <r>    -3.2341     0.0000   294.0000 </r>
       <r>    -3.1334     0.0000   294.0000 </r>
       <r>    -3.0328     0.0000   294.0000 </r>
       <r>    -2.9321     0.0000   294.0000 </r>
       <r>    -2.8314     0.0000   294.0000 </r>
       <r>    -2.7307    79.4602   302.0000 </r>
       <r>    -2.6301     0.0000   302.0000 </r>
       <r>    -2.5294     0.0000   302.0000 </r>
       <r>    -2.4287     0.0000   302.0000 </r>
       <r>    -2.3280     0.0000   302.0000 </r>
       <r>    -2.2273     0.0000   302.0000 </r>
       <r>    -2.1267     0.0000   302.0000 </r>
       <r>    -2.0260     0.0000   302.0000 </r>
       <r>    -1.9253     0.0000   302.0000 </r>
       <r>    -1.8246     0.0000   302.0000 </r>
       <r>    -1.7239     0.0000   302.0000 </r>
       <r>    -1.6233     0.0000   302.0000 </r>
       <r>    -1.5226     0.0000   302.0000 </r>
       <r>    -1.4219    57.0755   307.7463 </r>
       <r>    -1.3212    35.5825   314.0000 </r>
       <r>    -1.2205     0.0000   314.0000 </r>
       <r>    -1.1199     0.0000   314.0000 </r>
       <r>    -1.0192     0.0000   314.0000 </r>
       <r>    -0.9185    59.5883   319.9993 </r>
       <r>    -0.8178     0.0000   320.0000 </r>
       <r>    -0.7171     0.0091   320.0009 </r>
       <r>    -0.6165    37.4095   324.0000 </r>
       <r>    -0.5158     0.0000   324.0000 </r>
       <r>    -0.4151     0.0000   324.0000 </r>
       <r>    -0.3144    35.1066   327.5345 </r>
       <r>    -0.2137    20.1899   332.0000 </r>
       <r>    -0.1131     0.0000   332.0000 </r>
       <r>    -0.0124    28.3287   334.8521 </r>
       <r>     0.0883     0.3398   336.0342 </r>
       <r>     0.1890    55.4555   342.0000 </r>
       <r>     0.2896    47.0221   346.7342 </r>
       <r>     0.3903    57.3906   353.9449 </r>
       <r>     0.4910    27.0909   356.7275 </r>
       <r>     0.5917    76.1121   366.9801 </r>
       <r>     0.6924    53.0831   374.1446 </r>
       <r>     0.7930    73.8341   383.1336 </r>
       <r>     0.8937   102.6567   395.6028 </r>
       <r>     0.9944    66.2954   404.2248 </r>
       <r>     1.0951    75.4468   414.8131 </r>
       <r>     1.1958     2.1516   416.0000 </r>
       <r>     1.2964     0.0000   416.0000 </r>
       <r>     1.3971     0.0000   416.0000 </r>
       <r>     1.4978     0.0000   416.0000 </r>
       <r>     1.5985     0.0000   416.0000 </r>
       <r>     1.6992     0.0000   416.0000 </r>
       <r>     1.7998     0.0000   416.0000 </r>
       <r>     1.9005     0.0000   416.0000 </r>
       <r>     2.0012     0.0000   416.0000 </r>
       <r>     2.1019     0.0000   416.0000 </r>
       <r>     2.2026     0.0000   416.0000 </r>
       <r>     2.3032     0.0000   416.0000 </r>
       <r>     2.4039     0.0000   416.0000 </r>
       <r>     2.5046     0.0000   416.0000 </r>
      </set>
     </set>
    </array>
   </total>
  </dos>
 </calculation>
 <structure name="finalpos" >
  <crystal>
   <varray name="basis" >
    <v>      28.87384308      -0.08265273       0.00000000 </v>
    <v>     -14.50915880      25.00881980       0.00000000 </v>
    <v>       0.00000000       0.00000000      20.00000000 </v>
   </varray>
   <i name="volume">  14418.03034043 </i>
   <varray name="rec_basis" >
    <v>       0.03469104       0.02012641       0.00000000 </v>
    <v>       0.00011465       0.04005241       0.00000000 </v>
    <v>       0.00000000       0.00000000       0.05000000 </v>
   </varray>
  </crystal>
  <varray name="positions" >
   <v>       0.71502421       0.37097963       0.44229058 </v>
   <v>       0.62625627       0.34278582       0.44428896 </v>
   <v>       0.65403740       0.28223986       0.44159724 </v>
   <v>       0.64251669       0.22542466       0.44226156 </v>
   <v>       0.77198120       0.41666284       0.44351717 </v>
   <v>       0.28279067       0.62500301       0.55584447 </v>
   <v>       0.37178264       0.65418085       0.55626804 </v>
   <v>       0.34300411       0.71397242       0.55463906 </v>
   <v>       0.35378050       0.77050655       0.55163539 </v>
   <v>       0.22594808       0.57907028       0.55435080 </v>
   <v>       0.43063997       0.56575003       0.54627233 </v>
   <v>       0.48600124       0.51370607       0.51231236 </v>
   <v>       0.40684063       0.50941428       0.54277272 </v>
   <v>       0.48633874       0.42823295       0.49074804 </v>
   <v>       0.51370084       0.40193084       0.47316601 </v>
   <v>       0.13506274       0.56651172       0.54403064 </v>
   <v>       0.02739093       0.51136842       0.50862362 </v>
   <v>       0.10262230       0.59024053       0.54037886 </v>
   <v>       0.94166508       0.51121199       0.48607095 </v>
   <v>       0.88784602       0.48398593       0.46794801 </v>
   <v>       0.43182072       0.86172968       0.53988864 </v>
   <v>       0.48319478       0.96928642       0.50484185 </v>
   <v>       0.48814809       0.89480973       0.53483926 </v>
   <v>       0.56838186       0.05579168       0.48171921 </v>
   <v>       0.59451333       0.10979693       0.46496343 </v>
   <v>       0.58079476       0.35393822       0.44755971 </v>
   <v>       0.41779248       0.64375864       0.55507322 </v>
   <v>       0.48583960       0.59618676       0.53200760 </v>
   <v>       0.51333127       0.56989308       0.51497984 </v>
   <v>       0.51378523       0.48441228       0.49381356 </v>
   <v>       0.56888382       0.43232392       0.45879779 </v>
   <v>       0.59287129       0.48865177       0.46304453 </v>
   <v>       0.10999639       0.51147181       0.52933296 </v>
   <v>       0.05610680       0.48409382       0.51148828 </v>
   <v>       0.97023844       0.48380530       0.48916761 </v>
   <v>       0.86270398       0.42895722       0.45315068 </v>
   <v>       0.89497985       0.40507297       0.45709572 </v>
   <v>       0.40104334       0.88597642       0.52645303 </v>
   <v>       0.42698730       0.93981825       0.50884300 </v>
   <v>       0.51218633       0.02655614       0.48618150 </v>
   <v>       0.56395179       0.13448264       0.45288623 </v>
   <v>       0.50758792       0.10151383       0.45778921 </v>
   <v>       0.56010497       0.33764819       0.49603609 </v>
   <v>       0.65962690       0.22022107       0.48951106 </v>
   <v>       0.77754843       0.43764155       0.49196301 </v>
   <v>       0.44685316       0.66921294       0.59383408 </v>
   <v>       0.32935758       0.77504092       0.59089536 </v>
   <v>       0.22178915       0.55017535       0.59347732 </v>
   <v>       0.44365545       0.40603286       0.50234267 </v>
   <v>       0.49231289       0.35829673       0.47052035 </v>
   <v>       0.36397526       0.48410817       0.55396778 </v>
   <v>       0.35926906       0.56391796       0.56269103 </v>
   <v>       0.96237697       0.55375065       0.49811905 </v>
   <v>       0.86576341       0.50538134       0.46520215 </v>
   <v>       0.12039856       0.63296509       0.55195871 </v>
   <v>       0.20525874       0.63774943       0.56056134 </v>
   <v>       0.59075026       0.03544603       0.49175404 </v>
   <v>       0.63816139       0.13239499       0.46129105 </v>
   <v>       0.51372440       0.87764683       0.54514837 </v>
   <v>       0.43384659       0.79235840       0.55686739 </v>
   <v>       0.55127048       0.32935859       0.40873298 </v>
   <v>       0.66630017       0.22122372       0.40183332 </v>
   <v>       0.77596968       0.44577174       0.40478203 </v>
   <v>       0.43877702       0.65948772       0.50662340 </v>
   <v>       0.33696602       0.77454589       0.50347456 </v>
   <v>       0.22078414       0.55790573       0.50612725 </v>
   <v>       0.63576871       0.51391214       0.45201930 </v>
   <v>       0.50713052       0.63983245       0.53429242 </v>
   <v>       0.55601572       0.59211579       0.50338240 </v>
   <v>       0.64002016       0.43369694       0.44160885 </v>
   <v>       0.87714422       0.36234342       0.44550447 </v>
   <v>       0.13221136       0.49020225       0.53183681 </v>
   <v>       0.03548234       0.44156495       0.49940134 </v>
   <v>       0.79252787       0.35794128       0.43546697 </v>
   <v>       0.48216433       0.11894439       0.44808584 </v>
   <v>       0.35738865       0.86316550       0.52982527 </v>
   <v>       0.40446288       0.95986387       0.49790853 </v>
   <v>       0.56263348       0.20458735       0.43893441 </v>
   <v>       0.67641257       0.38415513       0.44398051 </v>
   <v>       0.61278315       0.29086326       0.44300520 </v>
   <v>       0.70612350       0.32098455       0.44076173 </v>
   <v>       0.32182257       0.61239203       0.55671807 </v>
   <v>       0.38463478       0.70593947       0.55556901 </v>
   <v>       0.29111975       0.67479127       0.55498467 </v>
   <v>       0.43302859       0.48430248       0.52648227 </v>
   <v>       0.39986221       0.58797999       0.56387139 </v>
   <v>       0.05118996       0.56412907       0.52347863 </v>
   <v>       0.18824080       0.59719586       0.56221645 </v>
   <v>       0.51292262       0.94619609       0.51814649 </v>
   <v>       0.40987695       0.80876085       0.55815959 </v>
   <v>       0.56677900       0.51378165       0.47976648 </v>
   <v>       0.59939147       0.40999321       0.44035318 </v>
   <v>       0.94635849       0.43104484       0.47428684 </v>
   <v>       0.80955835       0.39850239       0.43463900 </v>
   <v>       0.48260197       0.04994664       0.47372499 </v>
   <v>       0.58621073       0.18780282       0.43613138 </v>
  </varray>
 </structure>
</modeling>
