<?xml version="1.0" encoding="ISO-8859-1"?>
<modeling>
 <generator>
  <i name="program" type="string">vasp </i>
  <i name="version" type="string">5.4.4.18Apr17-6-g9f103f2a35  </i>
  <i name="subversion" type="string">(build Jun 07 2020 16:50:00) complex            parallel </i>
  <i name="platform" type="string">LinuxIFC </i>
  <i name="date" type="string">2023 02 19 </i>
  <i name="time" type="string">00:30:40 </i>
 </generator>
 <incar>
  <i type="string" name="SYSTEM">Simulation for cell shape cell volume r</i>
  <i type="int" name="ISTART">     1</i>
  <i type="string" name="PREC">high</i>
  <i type="string" name="ALGO">48</i>
  <i type="int" name="ICHARG">    11</i>
  <i type="int" name="NELM">   200</i>
  <i type="int" name="IBRION">    -1</i>
  <i name="EDIFF">      0.00001000</i>
  <i name="EDIFFG">     -0.01000000</i>
  <i type="int" name="NSW">     0</i>
  <i type="int" name="ISIF">     2</i>
  <i name="ENCUT">    500.00000000</i>
  <i name="POTIM">      0.30000000</i>
  <i type="string" name="LREAL">A</i>
  <i type="int" name="ISMEAR">     0</i>
  <i name="SIGMA">      0.01000000</i>
  <i type="int" name="NWRITE">     0</i>
  <i type="logical" name="LWAVE"> F  </i>
  <i type="logical" name="LCHARG"> F  </i>
  <v type="int" name="KPOINT_BSE">    -1     0     0     0</v>
  <i type="int" name="NELM">   200</i>
  <i type="string" name="GGA">PE</i>
 </incar>
 <structure name="primitive_cell" >
  <crystal>
   <varray name="basis" >
    <v>      14.73265558       0.00202167       0.00000000 </v>
    <v>      -7.36457061      12.76495901       0.00000000 </v>
    <v>       0.00000000       0.00000000      20.00000000 </v>
   </varray>
   <i name="volume">   3761.53266576 </i>
   <varray name="rec_basis" >
    <v>       0.06787105       0.03915729       0.00000000 </v>
    <v>      -0.00001075       0.07833326       0.00000000 </v>
    <v>       0.00000000       0.00000000       0.05000000 </v>
   </varray>
  </crystal>
  <varray name="positions" >
   <v>      -0.39796190       0.22292939      -0.48152872 </v>
   <v>      -0.44194138       0.28779833      -0.48157748 </v>
   <v>      -0.28825160       0.26944470      -0.48161496 </v>
   <v>      -0.46053670       0.10664832      -0.48258191 </v>
   <v>      -0.25641953       0.21718232      -0.48284816 </v>
   <v>       0.47399439       0.25605574      -0.48277339 </v>
   <v>      -0.40893094       0.05944338       0.49313221 </v>
   <v>      -0.22345093       0.37823163      -0.48140588 </v>
   <v>      -0.37884547       0.39746920      -0.48134672 </v>
   <v>       0.43414407       0.04304176      -0.46000961 </v>
   <v>      -0.27002945       0.44137890      -0.48140910 </v>
   <v>       0.36513177       0.08193313      -0.42973060 </v>
   <v>       0.41118585       0.15090275      -0.37389752 </v>
   <v>       0.34660672       0.12574818      -0.46655222 </v>
   <v>       0.42707212       0.11359762      -0.33992063 </v>
   <v>      -0.45675377      -0.04444284       0.49150156 </v>
   <v>      -0.43263966       0.46002787      -0.48224875 </v>
   <v>       0.38751475      -0.06169131      -0.46187853 </v>
   <v>      -0.10713167       0.43204624      -0.48240624 </v>
   <v>      -0.21774351      -0.47458704      -0.48243666 </v>
   <v>      -0.15131950       0.26017426      -0.37345784 </v>
   <v>      -0.12551998       0.22043867      -0.46583529 </v>
   <v>       0.46846847       0.40834590       0.49365516 </v>
   <v>       0.44021824      -0.10767849      -0.48535676 </v>
   <v>       0.29083905       0.01157136      -0.41593889 </v>
   <v>      -0.08201051       0.28299248      -0.42910212 </v>
   <v>      -0.41228339      -0.07859036       0.47010964 </v>
   <v>      -0.04330037       0.39063919      -0.45968020 </v>
   <v>      -0.11440029       0.31366527      -0.33959477 </v>
   <v>      -0.06013985      -0.46923957       0.49324830 </v>
   <v>      -0.39101682      -0.43465996      -0.45973296 </v>
   <v>      -0.26019655      -0.41172908      -0.37361385 </v>
   <v>       0.41235064       0.45616669       0.49198583 </v>
   <v>      -0.31371041      -0.42816165      -0.33977124 </v>
   <v>      -0.01157058       0.27933549      -0.41499272 </v>
   <v>      -0.28319049      -0.36567498      -0.42942668 </v>
   <v>      -0.22084963      -0.34713810      -0.46624392 </v>
   <v>       0.38612905      -0.22335618      -0.48590583 </v>
   <v>       0.06144787       0.44885018      -0.46164640 </v>
   <v>       0.33366092       0.41167509       0.47074531 </v>
   <v>       0.04377074      -0.41302875       0.49162140 </v>
   <v>      -0.44916539      -0.38801022      -0.46164899 </v>
   <v>       0.23392219      -0.23814288      -0.48395410 </v>
   <v>      -0.47208288      -0.23444519      -0.48369879 </v>
   <v>       0.45216123      -0.44071712      -0.48506934 </v>
   <v>       0.44259743      -0.27666283      -0.48566610 </v>
   <v>       0.27619787      -0.28121463      -0.48579375 </v>
   <v>       0.10723043      -0.45258662      -0.48521955 </v>
   <v>      -0.27936112      -0.29141789      -0.41562402 </v>
   <v>       0.07777980      -0.33446478       0.47023229 </v>
   <v>       0.39058515      -0.38655954      -0.48570939 </v>
   <v>       0.23780627       0.47176864      -0.48340066 </v>
   <v>       0.22293539      -0.39092522      -0.48579863 </v>
   <v>       0.28085387      -0.44295442      -0.48551714 </v>
  </varray>
 </structure>
 <varray name="primitive_index" >
  <v type="int" >        1 </v>
  <v type="int" >        2 </v>
  <v type="int" >        6 </v>
  <v type="int" >       21 </v>
  <v type="int" >       29 </v>
  <v type="int" >       30 </v>
  <v type="int" >       54 </v>
  <v type="int" >        5 </v>
  <v type="int" >        3 </v>
  <v type="int" >       23 </v>
  <v type="int" >        4 </v>
  <v type="int" >       24 </v>
  <v type="int" >       48 </v>
  <v type="int" >       41 </v>
  <v type="int" >       42 </v>
  <v type="int" >       27 </v>
  <v type="int" >       17 </v>
  <v type="int" >       51 </v>
  <v type="int" >       13 </v>
  <v type="int" >       28 </v>
  <v type="int" >       46 </v>
  <v type="int" >       35 </v>
  <v type="int" >       53 </v>
  <v type="int" >       22 </v>
  <v type="int" >       40 </v>
  <v type="int" >       16 </v>
  <v type="int" >       45 </v>
  <v type="int" >       15 </v>
  <v type="int" >       36 </v>
  <v type="int" >       52 </v>
  <v type="int" >       19 </v>
  <v type="int" >       47 </v>
  <v type="int" >       26 </v>
  <v type="int" >       39 </v>
  <v type="int" >       34 </v>
  <v type="int" >       20 </v>
  <v type="int" >       38 </v>
  <v type="int" >        7 </v>
  <v type="int" >       49 </v>
  <v type="int" >       44 </v>
  <v type="int" >       25 </v>
  <v type="int" >       50 </v>
  <v type="int" >       32 </v>
  <v type="int" >       33 </v>
  <v type="int" >       18 </v>
  <v type="int" >        8 </v>
  <v type="int" >       12 </v>
  <v type="int" >       14 </v>
  <v type="int" >       37 </v>
  <v type="int" >       43 </v>
  <v type="int" >        9 </v>
  <v type="int" >       31 </v>
  <v type="int" >       11 </v>
  <v type="int" >       10 </v>
 </varray>
 <kpoints>
  <generation param="listgenerated">
   <i name="divisions" type="int">      20 </i>
   <v>       0.00000000       0.00000000       0.00000000 </v>
   <v>       0.50000000       0.00000000       0.00000000 </v>
   <v>       0.33333333       0.33333333       0.00000000 </v>
   <v>       0.00000000       0.00000000       0.00000000 </v>
  </generation>
  <varray name="kpointlist" >
   <v>       0.00000000       0.00000000       0.00000000 </v>
   <v>       0.02631579       0.00000000       0.00000000 </v>
   <v>       0.05263158       0.00000000       0.00000000 </v>
   <v>       0.07894737       0.00000000       0.00000000 </v>
   <v>       0.10526316       0.00000000       0.00000000 </v>
   <v>       0.13157895       0.00000000       0.00000000 </v>
   <v>       0.15789474       0.00000000       0.00000000 </v>
   <v>       0.18421053       0.00000000       0.00000000 </v>
   <v>       0.21052632       0.00000000       0.00000000 </v>
   <v>       0.23684211       0.00000000       0.00000000 </v>
   <v>       0.26315789       0.00000000       0.00000000 </v>
   <v>       0.28947368       0.00000000       0.00000000 </v>
   <v>       0.31578947       0.00000000       0.00000000 </v>
   <v>       0.34210526       0.00000000       0.00000000 </v>
   <v>       0.36842105       0.00000000       0.00000000 </v>
   <v>       0.39473684       0.00000000       0.00000000 </v>
   <v>       0.42105263       0.00000000       0.00000000 </v>
   <v>       0.44736842       0.00000000       0.00000000 </v>
   <v>       0.47368421       0.00000000       0.00000000 </v>
   <v>       0.50000000       0.00000000       0.00000000 </v>
   <v>       0.50000000       0.00000000       0.00000000 </v>
   <v>       0.49122807       0.01754386       0.00000000 </v>
   <v>       0.48245614       0.03508772       0.00000000 </v>
   <v>       0.47368421       0.05263158       0.00000000 </v>
   <v>       0.46491228       0.07017544       0.00000000 </v>
   <v>       0.45614035       0.08771930       0.00000000 </v>
   <v>       0.44736842       0.10526316       0.00000000 </v>
   <v>       0.43859649       0.12280702       0.00000000 </v>
   <v>       0.42982456       0.14035088       0.00000000 </v>
   <v>       0.42105263       0.15789474       0.00000000 </v>
   <v>       0.41228070       0.17543860       0.00000000 </v>
   <v>       0.40350877       0.19298246       0.00000000 </v>
   <v>       0.39473684       0.21052632       0.00000000 </v>
   <v>       0.38596491       0.22807018       0.00000000 </v>
   <v>       0.37719298       0.24561404       0.00000000 </v>
   <v>       0.36842105       0.26315789       0.00000000 </v>
   <v>       0.35964912       0.28070175       0.00000000 </v>
   <v>       0.35087719       0.29824561       0.00000000 </v>
   <v>       0.34210526       0.31578947       0.00000000 </v>
   <v>       0.33333333       0.33333333       0.00000000 </v>
   <v>       0.33333333       0.33333333       0.00000000 </v>
   <v>       0.31578947       0.31578947       0.00000000 </v>
   <v>       0.29824561       0.29824561       0.00000000 </v>
   <v>       0.28070175       0.28070175       0.00000000 </v>
   <v>       0.26315789       0.26315789       0.00000000 </v>
   <v>       0.24561404       0.24561404       0.00000000 </v>
   <v>       0.22807018       0.22807018       0.00000000 </v>
   <v>       0.21052632       0.21052632       0.00000000 </v>
   <v>       0.19298246       0.19298246       0.00000000 </v>
   <v>       0.17543860       0.17543860       0.00000000 </v>
   <v>       0.15789474       0.15789474       0.00000000 </v>
   <v>       0.14035088       0.14035088       0.00000000 </v>
   <v>       0.12280702       0.12280702       0.00000000 </v>
   <v>       0.10526316       0.10526316       0.00000000 </v>
   <v>       0.08771930       0.08771930       0.00000000 </v>
   <v>       0.07017544       0.07017544       0.00000000 </v>
   <v>       0.05263158       0.05263158       0.00000000 </v>
   <v>       0.03508772       0.03508772       0.00000000 </v>
   <v>       0.01754386       0.01754386       0.00000000 </v>
   <v>       0.00000000       0.00000000       0.00000000 </v>
  </varray>
  <varray name="weights" >
   <v>       0.01666667 </v>
   <v>       0.01666667 </v>
   <v>       0.01666667 </v>
   <v>       0.01666667 </v>
   <v>       0.01666667 </v>
   <v>       0.01666667 </v>
   <v>       0.01666667 </v>
   <v>       0.01666667 </v>
   <v>       0.01666667 </v>
   <v>       0.01666667 </v>
   <v>       0.01666667 </v>
   <v>       0.01666667 </v>
   <v>       0.01666667 </v>
   <v>       0.01666667 </v>
   <v>       0.01666667 </v>
   <v>       0.01666667 </v>
   <v>       0.01666667 </v>
   <v>       0.01666667 </v>
   <v>       0.01666667 </v>
   <v>       0.01666667 </v>
   <v>       0.01666667 </v>
   <v>       0.01666667 </v>
   <v>       0.01666667 </v>
   <v>       0.01666667 </v>
   <v>       0.01666667 </v>
   <v>       0.01666667 </v>
   <v>       0.01666667 </v>
   <v>       0.01666667 </v>
   <v>       0.01666667 </v>
   <v>       0.01666667 </v>
   <v>       0.01666667 </v>
   <v>       0.01666667 </v>
   <v>       0.01666667 </v>
   <v>       0.01666667 </v>
   <v>       0.01666667 </v>
   <v>       0.01666667 </v>
   <v>       0.01666667 </v>
   <v>       0.01666667 </v>
   <v>       0.01666667 </v>
   <v>       0.01666667 </v>
   <v>       0.01666667 </v>
   <v>       0.01666667 </v>
   <v>       0.01666667 </v>
   <v>       0.01666667 </v>
   <v>       0.01666667 </v>
   <v>       0.01666667 </v>
   <v>       0.01666667 </v>
   <v>       0.01666667 </v>
   <v>       0.01666667 </v>
   <v>       0.01666667 </v>
   <v>       0.01666667 </v>
   <v>       0.01666667 </v>
   <v>       0.01666667 </v>
   <v>       0.01666667 </v>
   <v>       0.01666667 </v>
   <v>       0.01666667 </v>
   <v>       0.01666667 </v>
   <v>       0.01666667 </v>
   <v>       0.01666667 </v>
   <v>       0.01666667 </v>
  </varray>
 </kpoints>
 <parameters>
  <separator name="general" >
   <i type="string" name="SYSTEM">Simulation for cell shape cell volume r</i>
   <i type="logical" name="LCOMPAT"> F  </i>
  </separator>
  <separator name="electronic" >
   <i type="string" name="PREC">high</i>
   <i name="ENMAX">    500.00000000</i>
   <i name="ENAUG">    644.87300000</i>
   <i name="EDIFF">      0.00001000</i>
   <i type="int" name="IALGO">    38</i>
   <i type="int" name="IWAVPR">    10</i>
   <i type="int" name="NBANDS">   128</i>
   <i name="NELECT">    174.00000000</i>
   <i type="int" name="TURBO">     0</i>
   <i type="int" name="IRESTART">     0</i>
   <i type="int" name="NREBOOT">     0</i>
   <i type="int" name="NMIN">     0</i>
   <i name="EREF">      0.00000000</i>
   <separator name="electronic smearing" >
    <i type="int" name="ISMEAR">     0</i>
    <i name="SIGMA">      0.01000000</i>
    <i name="KSPACING">      0.50000000</i>
    <i type="logical" name="KGAMMA"> T  </i>
   </separator>
   <separator name="electronic projectors" >
    <i type="logical" name="LREAL"> T  </i>
    <v name="ROPT">     -0.00040000     -0.00040000     -0.00040000     -0.00040000</v>
    <i type="int" name="LMAXPAW">  -100</i>
    <i type="int" name="LMAXMIX">     2</i>
    <i type="logical" name="NLSPLINE"> F  </i>
   </separator>
   <separator name="electronic startup" >
    <i type="int" name="ISTART">     1</i>
    <i type="int" name="ICHARG">    11</i>
    <i type="int" name="INIWAV">     1</i>
   </separator>
   <separator name="electronic spin" >
    <i type="int" name="ISPIN">     1</i>
    <i type="logical" name="LNONCOLLINEAR"> F  </i>
    <v name="MAGMOM">      1.00000000      1.00000000      1.00000000      1.00000000      1.00000000      1.00000000      1.00000000      1.00000000      1.00000000      1.00000000      1.00000000      1.00000000      1.00000000      1.00000000      1.00000000      1.00000000      1.00000000      1.00000000      1.00000000      1.00000000
      1.00000000      1.00000000      1.00000000      1.00000000      1.00000000      1.00000000      1.00000000      1.00000000      1.00000000      1.00000000      1.00000000      1.00000000      1.00000000      1.00000000      1.00000000      1.00000000      1.00000000      1.00000000      1.00000000      1.00000000
      1.00000000      1.00000000      1.00000000      1.00000000      1.00000000      1.00000000      1.00000000      1.00000000      1.00000000      1.00000000      1.00000000      1.00000000      1.00000000      1.00000000</v>
    <i name="NUPDOWN">     -1.00000000</i>
    <i type="logical" name="LSORBIT"> F  </i>
    <v name="SAXIS">      0.00000000      0.00000000      1.00000000</v>
    <i type="logical" name="LSPIRAL"> F  </i>
    <v name="QSPIRAL">      0.00000000      0.00000000      0.00000000</v>
    <i type="logical" name="LZEROZ"> F  </i>
   </separator>
   <separator name="electronic exchange-correlation" >
    <i type="logical" name="LASPH"> F  </i>
    <i type="logical" name="LMETAGGA"> F  </i>
   </separator>
   <separator name="electronic convergence" >
    <i type="int" name="NELM">   200</i>
    <i type="int" name="NELMDL">     0</i>
    <i type="int" name="NELMIN">     2</i>
    <i name="ENINI">    500.00000000</i>
    <separator name="electronic convergence detail" >
     <i type="logical" name="LDIAG"> T  </i>
     <i type="logical" name="LSUBROT"> F  </i>
     <i name="WEIMIN">      0.00000000</i>
     <i name="EBREAK">      0.00000002</i>
     <i name="DEPER">      0.30000000</i>
     <i type="int" name="NRMM">     4</i>
     <i name="TIME">      0.40000000</i>
    </separator>
   </separator>
   <separator name="electronic mixer" >
    <i name="AMIX">      0.40000000</i>
    <i name="BMIX">      1.00000000</i>
    <i name="AMIN">      0.10000000</i>
    <i name="AMIX_MAG">      1.60000000</i>
    <i name="BMIX_MAG">      1.00000000</i>
    <separator name="electronic mixer details" >
     <i type="int" name="IMIX">     4</i>
     <i type="logical" name="MIXFIRST"> F  </i>
     <i type="int" name="MAXMIX">   -45</i>
     <i name="WC">    100.00000000</i>
     <i type="int" name="INIMIX">     1</i>
     <i type="int" name="MIXPRE">     1</i>
     <i type="int" name="MREMOVE">     5</i>
    </separator>
   </separator>
   <separator name="electronic dipolcorrection" >
    <i type="logical" name="LDIPOL"> F  </i>
    <i type="logical" name="LMONO"> F  </i>
    <i type="int" name="IDIPOL">     0</i>
    <i name="EPSILON">      1.00000000</i>
    <v name="DIPOL">   -100.00000000   -100.00000000   -100.00000000</v>
    <i name="EFIELD">      0.00000000</i>
   </separator>
  </separator>
  <separator name="grids" >
   <i type="int" name="NGX">   108</i>
   <i type="int" name="NGY">   108</i>
   <i type="int" name="NGZ">   150</i>
   <i type="int" name="NGXF">   162</i>
   <i type="int" name="NGYF">   162</i>
   <i type="int" name="NGZF">   224</i>
   <i type="logical" name="ADDGRID"> F  </i>
  </separator>
  <separator name="ionic" >
   <i type="int" name="NSW">     0</i>
   <i type="int" name="IBRION">    -1</i>
   <i type="int" name="MDALGO">     0</i>
   <i type="int" name="ISIF">     2</i>
   <i name="PSTRESS">      0.00000000</i>
   <i name="EDIFFG">     -0.01000000</i>
   <i type="int" name="NFREE">     0</i>
   <i name="POTIM">      0.30000000</i>
   <i name="SMASS">     -3.00000000</i>
   <i name="SCALEE">      1.00000000</i>
  </separator>
  <separator name="ionic md" >
   <i name="TEBEG">      0.00010000</i>
   <i name="TEEND">      0.00010000</i>
   <i type="int" name="NBLOCK">     1</i>
   <i type="int" name="KBLOCK">     1</i>
   <i type="int" name="NPACO">   256</i>
   <i name="APACO">     16.00000000</i>
  </separator>
  <separator name="symmetry" >
   <i type="int" name="ISYM">     2</i>
   <i name="SYMPREC">      0.00001000</i>
  </separator>
  <separator name="dos" >
   <i type="int" name="LORBIT">     0</i>
   <v name="RWIGS">     -1.00000000     -1.00000000     -1.00000000     -1.00000000</v>
   <i type="int" name="NEDOS">   301</i>
   <i name="EMIN">     10.00000000</i>
   <i name="EMAX">    -10.00000000</i>
   <i name="EFERMI">      0.00000000</i>
  </separator>
  <separator name="writing" >
   <i type="int" name="NWRITE">     0</i>
   <i type="logical" name="LWAVE"> F  </i>
   <i type="logical" name="LDOWNSAMPLE"> F  </i>
   <i type="logical" name="LCHARG"> F  </i>
   <i type="logical" name="LPARD"> F  </i>
   <i type="logical" name="LVTOT"> F  </i>
   <i type="logical" name="LVHAR"> F  </i>
   <i type="logical" name="LELF"> F  </i>
   <i type="logical" name="LOPTICS"> F  </i>
   <v name="STM">      0.00000000      0.00000000      0.00000000      0.00000000      0.00000000      0.00000000      0.00000000</v>
  </separator>
  <separator name="performance" >
   <i type="int" name="NPAR">    16</i>
   <i type="int" name="NSIM">     4</i>
   <i type="int" name="NBLK">    -1</i>
   <i type="logical" name="LPLANE"> T  </i>
   <i type="logical" name="LSCALAPACK"> T  </i>
   <i type="logical" name="LSCAAWARE"> F  </i>
   <i type="logical" name="LSCALU"> F  </i>
   <i type="logical" name="LASYNC"> F  </i>
   <i type="logical" name="LORBITALREAL"> F  </i>
  </separator>
  <separator name="miscellaneous" >
   <i type="int" name="IDIOT">     3</i>
   <i type="int" name="ISPECIAL">     0</i>
   <i type="logical" name="LMUSIC"> F  </i>
   <v name="POMASS">     12.01100000      1.00000000     16.00000000     14.00100000</v>
   <v name="DARWINR">      0.00000000      0.00000000      0.00000000      0.00000000</v>
   <v name="DARWINV">      1.00000000      1.00000000      1.00000000      1.00000000</v>
   <i type="logical" name="LCORR"> T  </i>
  </separator>
  <i type="logical" name="GGA_COMPAT"> T  </i>
  <i type="logical" name="LBERRY"> F  </i>
  <i type="int" name="ICORELEVEL">     0</i>
  <i type="logical" name="LDAU"> F  </i>
  <i type="int" name="I_CONSTRAINED_M">     0</i>
  <separator name="electronic exchange-correlation" >
   <i type="string" name="GGA">PE</i>
   <i type="int" name="VOSKOWN">     0</i>
   <i type="logical" name="LHFCALC"> F  </i>
   <i type="string" name="PRECFOCK"></i>
   <i type="logical" name="LSYMGRAD"> F  </i>
   <i type="logical" name="LHFONE"> F  </i>
   <i type="logical" name="LRHFCALC"> F  </i>
   <i type="logical" name="LTHOMAS"> F  </i>
   <i type="logical" name="LMODELHF"> F  </i>
   <i name="ENCUT4O">     -1.00000000</i>
   <i type="int" name="EXXOEP">     0</i>
   <i type="int" name="FOURORBIT">     0</i>
   <i name="AEXX">      0.00000000</i>
   <i name="HFALPHA">      0.00000000</i>
   <i name="MCALPHA">      0.00000000</i>
   <i name="ALDAX">      1.00000000</i>
   <i name="AGGAX">      1.00000000</i>
   <i name="ALDAC">      1.00000000</i>
   <i name="AGGAC">      1.00000000</i>
   <i type="int" name="NKREDX">     1</i>
   <i type="int" name="NKREDY">     1</i>
   <i type="int" name="NKREDZ">     1</i>
   <i type="logical" name="SHIFTRED"> F  </i>
   <i type="logical" name="ODDONLY"> F  </i>
   <i type="logical" name="EVENONLY"> F  </i>
   <i type="int" name="LMAXFOCK">     0</i>
   <i type="int" name="NMAXFOCKAE">     0</i>
   <i type="logical" name="LFOCKAEDFT"> F  </i>
   <i name="HFSCREEN">      0.00000000</i>
   <i name="HFSCREENC">      0.00000000</i>
   <i type="int" name="NBANDSGWLOW">     0</i>
  </separator>
  <separator name="vdW DFT" >
   <i type="logical" name="LUSE_VDW"> F  </i>
   <i name="Zab_VDW">     -0.84910000</i>
   <i name="PARAM1">      0.12340000</i>
   <i name="PARAM2">      1.00000000</i>
   <i name="PARAM3">      0.00000000</i>
  </separator>
  <separator name="model GW" >
   <i type="int" name="MODEL_GW">     0</i>
   <i name="MODEL_EPS0">     41.79480740</i>
   <i name="MODEL_ALPHA">      1.00000000</i>
  </separator>
  <separator name="linear response parameters" >
   <i type="logical" name="LEPSILON"> F  </i>
   <i type="logical" name="LRPA"> F  </i>
   <i type="logical" name="LNABLA"> F  </i>
   <i type="logical" name="LVEL"> F  </i>
   <i type="int" name="KINTER">     0</i>
   <i name="CSHIFT">      0.10000000</i>
   <i name="OMEGAMAX">     -1.00000000</i>
   <i name="DEG_THRESHOLD">      0.00200000</i>
   <i name="RTIME">     -0.10000000</i>
   <i name="WPLASMAI">      0.00000000</i>
   <v name="DFIELD">      0.00000000      0.00000000      0.00000000</v>
   <v name="WPLASMA">      0.00000000      0.00000000      0.00000000      0.00000000      0.00000000      0.00000000      0.00000000      0.00000000      0.00000000</v>
  </separator>
  <separator name="orbital magnetization" >
   <i type="logical" name="NUCIND"> F  </i>
   <v name="MAGPOS">      0.00000000      0.00000000      0.00000000</v>
   <i type="logical" name="LNICSALL"> T  </i>
   <i type="logical" name="ORBITALMAG"> F  </i>
   <i type="logical" name="LMAGBLOCH"> F  </i>
   <i type="logical" name="LCHIMAG"> F  </i>
   <i type="logical" name="LGAUGE"> T  </i>
   <i type="int" name="MAGATOM">     0</i>
   <v name="MAGDIPOL">      0.00000000      0.00000000      0.00000000</v>
   <v name="AVECCONST">      0.00000000      0.00000000      0.00000000</v>
  </separator>
  <separator name="response functions" >
   <i type="logical" name="LADDER"> F  </i>
   <i type="logical" name="LRPAFORCE"> F  </i>
   <i type="logical" name="LFXC"> F  </i>
   <i type="logical" name="LHARTREE"> T  </i>
   <i type="int" name="IBSE">     0</i>
   <v type="int" name="KPOINT">    -1     0     0     0</v>
   <i type="logical" name="LTCTE"> F  </i>
   <i type="logical" name="LTETE"> F  </i>
   <i type="logical" name="LTRIPLET"> F  </i>
   <i type="logical" name="LFXCEPS"> F  </i>
   <i type="logical" name="LFXHEG"> F  </i>
   <i type="int" name="NATURALO">     2</i>
   <i type="logical" name="L2ORDER"> F  </i>
   <i type="logical" name="LMP2LT"> F  </i>
   <i type="logical" name="LUSEW"> F  </i>
   <i name="ENCUTGW">     -2.00000000</i>
   <i name="ENCUTGWSOFT">     -2.00000000</i>
   <i name="ENCUTLF">     -1.00000000</i>
   <i type="int" name="LMAXMP2">    -1</i>
   <i name="SCISSOR">      0.00000000</i>
   <i type="int" name="NOMEGA">     0</i>
   <i type="int" name="NOMEGAR">     0</i>
   <i type="int" name="NBANDSGW">    -1</i>
   <i type="int" name="NBANDSO">    -1</i>
   <i type="int" name="NBANDSV">    -1</i>
   <i type="int" name="NELM">   200</i>
   <i type="int" name="NELMHF">     1</i>
   <i type="int" name="DIM">     3</i>
   <i type="int" name="ANTIRES">     0</i>
   <i name="OMEGAMAX">    -30.00000000</i>
   <i name="OMEGAMIN">    -30.00000000</i>
   <i name="OMEGATL">   -200.00000000</i>
   <i type="int" name="OMEGAGRID">   140</i>
   <i name="CSHIFT">     -0.10000000</i>
   <i type="logical" name="SELFENERGY"> F  </i>
   <i type="logical" name="LSPECTRAL"> F  </i>
   <i type="logical" name="LSPECTRALGW"> F  </i>
   <i type="logical" name="LSINGLES"> F  </i>
   <i type="logical" name="LFERMIGW"> F  </i>
   <i type="logical" name="ODDONLYGW"> F  </i>
   <i type="logical" name="EVENONLYGW"> F  </i>
   <i type="int" name="NKREDLFX">     1</i>
   <i type="int" name="NKREDLFY">     1</i>
   <i type="int" name="NKREDLFZ">     1</i>
   <i type="int" name="MAXMEM">  2800</i>
   <i type="int" name="TELESCOPE">     0</i>
   <i type="int" name="TAUPAR">     1</i>
   <i type="int" name="OMEGAPAR">    -1</i>
   <i name="LAMBDA">      1.00000000</i>
  </separator>
  <separator name="External order field" >
   <i name="OFIELD_KAPPA">      0.00000000</i>
   <v name="OFIELD_K">      0.00000000      0.00000000      0.00000000</v>
   <i name="OFIELD_Q6_NEAR">      0.00000000</i>
   <i name="OFIELD_Q6_FAR">      0.00000000</i>
   <i name="OFIELD_A">      0.00000000</i>
  </separator>
  <separator name="solvation model" >
   <i type="logical" name="LSOL"> F  </i>
  </separator>
 </parameters>
 <atominfo>
  <atoms>      54 </atoms>
  <types>       4 </types>
  <array name="atoms" >
   <dimension dim="1">ion</dimension>
   <field type="string">element</field>
   <field type="int">atomtype</field>
   <set>
    <rc><c>C </c><c>   1</c></rc>
    <rc><c>C </c><c>   1</c></rc>
    <rc><c>C </c><c>   1</c></rc>
    <rc><c>C </c><c>   1</c></rc>
    <rc><c>C </c><c>   1</c></rc>
    <rc><c>C </c><c>   1</c></rc>
    <rc><c>C </c><c>   1</c></rc>
    <rc><c>C </c><c>   1</c></rc>
    <rc><c>C </c><c>   1</c></rc>
    <rc><c>C </c><c>   1</c></rc>
    <rc><c>C </c><c>   1</c></rc>
    <rc><c>C </c><c>   1</c></rc>
    <rc><c>C </c><c>   1</c></rc>
    <rc><c>C </c><c>   1</c></rc>
    <rc><c>C </c><c>   1</c></rc>
    <rc><c>C </c><c>   1</c></rc>
    <rc><c>C </c><c>   1</c></rc>
    <rc><c>C </c><c>   1</c></rc>
    <rc><c>C </c><c>   1</c></rc>
    <rc><c>C </c><c>   1</c></rc>
    <rc><c>C </c><c>   1</c></rc>
    <rc><c>C </c><c>   1</c></rc>
    <rc><c>C </c><c>   1</c></rc>
    <rc><c>C </c><c>   1</c></rc>
    <rc><c>C </c><c>   1</c></rc>
    <rc><c>C </c><c>   1</c></rc>
    <rc><c>C </c><c>   1</c></rc>
    <rc><c>H </c><c>   2</c></rc>
    <rc><c>H </c><c>   2</c></rc>
    <rc><c>H </c><c>   2</c></rc>
    <rc><c>H </c><c>   2</c></rc>
    <rc><c>H </c><c>   2</c></rc>
    <rc><c>H </c><c>   2</c></rc>
    <rc><c>H </c><c>   2</c></rc>
    <rc><c>H </c><c>   2</c></rc>
    <rc><c>H </c><c>   2</c></rc>
    <rc><c>H </c><c>   2</c></rc>
    <rc><c>H </c><c>   2</c></rc>
    <rc><c>H </c><c>   2</c></rc>
    <rc><c>H </c><c>   2</c></rc>
    <rc><c>H </c><c>   2</c></rc>
    <rc><c>H </c><c>   2</c></rc>
    <rc><c>H </c><c>   2</c></rc>
    <rc><c>H </c><c>   2</c></rc>
    <rc><c>H </c><c>   2</c></rc>
    <rc><c>O </c><c>   3</c></rc>
    <rc><c>O </c><c>   3</c></rc>
    <rc><c>O </c><c>   3</c></rc>
    <rc><c>N </c><c>   4</c></rc>
    <rc><c>N </c><c>   4</c></rc>
    <rc><c>N </c><c>   4</c></rc>
    <rc><c>N </c><c>   4</c></rc>
    <rc><c>N </c><c>   4</c></rc>
    <rc><c>N </c><c>   4</c></rc>
   </set>
  </array>
  <array name="atomtypes" >
   <dimension dim="1">type</dimension>
   <field type="int">atomspertype</field>
   <field type="string">element</field>
   <field>mass</field>
   <field>valence</field>
   <field type="string">pseudopotential</field>
   <set>
    <rc><c>  27</c><c>C </c><c>     12.01100000</c><c>      4.00000000</c><c>  PAW_PBE C 08Apr2002                   </c></rc>
    <rc><c>  18</c><c>H </c><c>      1.00000000</c><c>      1.00000000</c><c>  PAW_PBE H 15Jun2001                   </c></rc>
    <rc><c>   3</c><c>O </c><c>     16.00000000</c><c>      6.00000000</c><c>  PAW_PBE O 08Apr2002                   </c></rc>
    <rc><c>   6</c><c>N </c><c>     14.00100000</c><c>      5.00000000</c><c>  PAW_PBE N 08Apr2002                   </c></rc>
   </set>
  </array>
 </atominfo>
 <structure name="initialpos" >
  <crystal>
   <varray name="basis" >
    <v>      14.73265558       0.00202167       0.00000000 </v>
    <v>      -7.36457061      12.76495901       0.00000000 </v>
    <v>       0.00000000       0.00000000      20.00000000 </v>
   </varray>
   <i name="volume">   3761.53266576 </i>
   <varray name="rec_basis" >
    <v>       0.06787105       0.03915729       0.00000000 </v>
    <v>      -0.00001075       0.07833326       0.00000000 </v>
    <v>       0.00000000       0.00000000       0.05000000 </v>
   </varray>
  </crystal>
  <varray name="positions" >
   <v>       0.60203810       0.22292939       0.51847128 </v>
   <v>       0.55805862       0.28779833       0.51842252 </v>
   <v>       0.62115453       0.39746920       0.51865328 </v>
   <v>       0.72997055       0.44137890       0.51859090 </v>
   <v>       0.77654907       0.37823163       0.51859412 </v>
   <v>       0.71174840       0.26944470       0.51838504 </v>
   <v>       0.38612905       0.77664382       0.51409417 </v>
   <v>       0.44259743       0.72333717       0.51433390 </v>
   <v>       0.39058515       0.61344046       0.51429061 </v>
   <v>       0.28085387       0.55704558       0.51448286 </v>
   <v>       0.22293539       0.60907478       0.51420137 </v>
   <v>       0.27619787       0.71878537       0.51420625 </v>
   <v>       0.89286833       0.43204624       0.51759376 </v>
   <v>       0.10723043       0.54741338       0.51478045 </v>
   <v>       0.95669963       0.39063919       0.54031980 </v>
   <v>       0.91798949       0.28299248       0.57089788 </v>
   <v>       0.56736034       0.46002787       0.51775125 </v>
   <v>       0.45216123       0.55928288       0.51493066 </v>
   <v>       0.60898318       0.56534004       0.54026704 </v>
   <v>       0.71680951       0.63432502       0.57057332 </v>
   <v>       0.53946330       0.10664832       0.51741809 </v>
   <v>       0.44021824       0.89232151       0.51464324 </v>
   <v>       0.43414407       0.04304176       0.53999039 </v>
   <v>       0.36513177       0.08193313       0.57026940 </v>
   <v>       0.04377074       0.58697125       0.49162140 </v>
   <v>       0.41235064       0.45616669       0.49198583 </v>
   <v>       0.54324623       0.95555716       0.49150156 </v>
   <v>       0.78225649       0.52541296       0.51756334 </v>
   <v>       0.74358047       0.21718232       0.51715184 </v>
   <v>       0.47399439       0.25605574       0.51722661 </v>
   <v>       0.23780627       0.47176864       0.51659934 </v>
   <v>       0.23392219       0.76185712       0.51604590 </v>
   <v>       0.52791712       0.76555481       0.51630121 </v>
   <v>       0.98842942       0.27933549       0.58500728 </v>
   <v>       0.87448002       0.22043867       0.53416471 </v>
   <v>       0.88559971       0.31366527       0.66040523 </v>
   <v>       0.72063888       0.70858211       0.58437598 </v>
   <v>       0.77915037       0.65286190       0.53375608 </v>
   <v>       0.68628959       0.57183835       0.66022876 </v>
   <v>       0.29083905       0.01157136       0.58406111 </v>
   <v>       0.34660672       0.12574818       0.53344778 </v>
   <v>       0.42707212       0.11359762       0.66007937 </v>
   <v>       0.07777980       0.66553522       0.47023229 </v>
   <v>       0.33366092       0.41167509       0.47074531 </v>
   <v>       0.58771661       0.92140964       0.47010964 </v>
   <v>       0.84868050       0.26017426       0.62654216 </v>
   <v>       0.73980345       0.58827092       0.62638615 </v>
   <v>       0.41118585       0.15090275       0.62610248 </v>
   <v>       0.06144787       0.44885018       0.53835360 </v>
   <v>       0.55083461       0.61198978       0.53835101 </v>
   <v>       0.38751475       0.93830869       0.53812147 </v>
   <v>       0.93986015       0.53076043       0.49324830 </v>
   <v>       0.46846847       0.40834590       0.49365516 </v>
   <v>       0.59106906       0.05944338       0.49313221 </v>
  </varray>
 </structure>
 <calculation>
  <scstep>
   <time name="dav">   32.46   32.71</time>
   <time name="total">   32.55   32.81</time>
   <energy>
    <i name="alphaZ">     36.87268068 </i>
    <i name="ewald">  19172.22140286 </i>
    <i name="hartreedc"> -25105.91462512 </i>
    <i name="XCdc">    627.57280359 </i>
    <i name="pawpsdc">  15828.39265010 </i>
    <i name="pawaedc"> -15861.65051288 </i>
    <i name="eentropy">     -0.00000000 </i>
    <i name="bandstr">  -2154.19249472 </i>
    <i name="atom">   7082.04152350 </i>
    <i name="e_fr_energy">   -374.65657199 </i>
    <i name="e_wo_entrp">   -374.65657199 </i>
    <i name="e_0_energy">   -374.65657199 </i>
   </energy>
  </scstep>
  <scstep>
   <time name="dav">   35.52   35.78</time>
   <time name="total">   35.53   35.79</time>
   <energy>
    <i name="e_fr_energy">   -376.75939766 </i>
    <i name="e_wo_entrp">   -376.75939766 </i>
    <i name="e_0_energy">   -376.75939766 </i>
   </energy>
  </scstep>
  <scstep>
   <time name="dav">   36.39   36.66</time>
   <time name="total">   36.40   36.67</time>
   <energy>
    <i name="e_fr_energy">   -376.80833152 </i>
    <i name="e_wo_entrp">   -376.80833152 </i>
    <i name="e_0_energy">   -376.80833152 </i>
   </energy>
  </scstep>
  <scstep>
   <time name="dav">   36.02   36.28</time>
   <time name="total">   36.02   36.29</time>
   <energy>
    <i name="e_fr_energy">   -376.81000381 </i>
    <i name="e_wo_entrp">   -376.81000381 </i>
    <i name="e_0_energy">   -376.81000381 </i>
   </energy>
  </scstep>
  <scstep>
   <time name="dav">   36.20   36.47</time>
   <time name="total">   36.21   36.47</time>
   <energy>
    <i name="e_fr_energy">   -376.81005331 </i>
    <i name="e_wo_entrp">   -376.81005331 </i>
    <i name="e_0_energy">   -376.81005331 </i>
   </energy>
  </scstep>
  <scstep>
   <time name="dav">   31.91   32.15</time>
   <time name="total">   31.92   32.15</time>
   <energy>
    <i name="alphaZ">     36.87268068 </i>
    <i name="ewald">  19172.22140286 </i>
    <i name="hartreedc"> -25105.91462512 </i>
    <i name="XCdc">    627.57280359 </i>
    <i name="pawpsdc">  15828.39265010 </i>
    <i name="pawaedc"> -15861.65051288 </i>
    <i name="eentropy">     -0.00000000 </i>
    <i name="bandstr">  -2156.34597808 </i>
    <i name="atom">   7082.04152350 </i>
    <i name="e_fr_energy">   -376.81005535 </i>
    <i name="e_wo_entrp">   -376.81005535 </i>
    <i name="e_0_energy">   -376.81005535 </i>
   </energy>
  </scstep>
  <structure>
   <crystal>
    <varray name="basis" >
     <v>      14.73265558       0.00202167       0.00000000 </v>
     <v>      -7.36457061      12.76495901       0.00000000 </v>
     <v>       0.00000000       0.00000000      20.00000000 </v>
    </varray>
    <i name="volume">   3761.53266576 </i>
    <varray name="rec_basis" >
     <v>       0.06787105       0.03915729       0.00000000 </v>
     <v>      -0.00001075       0.07833326       0.00000000 </v>
     <v>       0.00000000       0.00000000       0.05000000 </v>
    </varray>
   </crystal>
   <varray name="positions" >
    <v>       0.60203810       0.22292939       0.51847128 </v>
    <v>       0.55805862       0.28779833       0.51842252 </v>
    <v>       0.62115453       0.39746920       0.51865328 </v>
    <v>       0.72997055       0.44137890       0.51859090 </v>
    <v>       0.77654907       0.37823163       0.51859412 </v>
    <v>       0.71174840       0.26944470       0.51838504 </v>
    <v>       0.38612905       0.77664382       0.51409417 </v>
    <v>       0.44259743       0.72333717       0.51433390 </v>
    <v>       0.39058515       0.61344046       0.51429061 </v>
    <v>       0.28085387       0.55704558       0.51448286 </v>
    <v>       0.22293539       0.60907478       0.51420137 </v>
    <v>       0.27619787       0.71878537       0.51420625 </v>
    <v>       0.89286833       0.43204624       0.51759376 </v>
    <v>       0.10723043       0.54741338       0.51478045 </v>
    <v>       0.95669963       0.39063919       0.54031980 </v>
    <v>       0.91798949       0.28299248       0.57089788 </v>
    <v>       0.56736034       0.46002787       0.51775125 </v>
    <v>       0.45216123       0.55928288       0.51493066 </v>
    <v>       0.60898318       0.56534004       0.54026704 </v>
    <v>       0.71680951       0.63432502       0.57057332 </v>
    <v>       0.53946330       0.10664832       0.51741809 </v>
    <v>       0.44021824       0.89232151       0.51464324 </v>
    <v>       0.43414407       0.04304176       0.53999039 </v>
    <v>       0.36513177       0.08193313       0.57026940 </v>
    <v>       0.04377074       0.58697125       0.49162140 </v>
    <v>       0.41235064       0.45616669       0.49198583 </v>
    <v>       0.54324623       0.95555716       0.49150156 </v>
    <v>       0.78225649       0.52541296       0.51756334 </v>
    <v>       0.74358047       0.21718232       0.51715184 </v>
    <v>       0.47399439       0.25605574       0.51722661 </v>
    <v>       0.23780627       0.47176864       0.51659934 </v>
    <v>       0.23392219       0.76185712       0.51604590 </v>
    <v>       0.52791712       0.76555481       0.51630121 </v>
    <v>       0.98842942       0.27933549       0.58500728 </v>
    <v>       0.87448002       0.22043867       0.53416471 </v>
    <v>       0.88559971       0.31366527       0.66040523 </v>
    <v>       0.72063888       0.70858211       0.58437598 </v>
    <v>       0.77915037       0.65286190       0.53375608 </v>
    <v>       0.68628959       0.57183835       0.66022876 </v>
    <v>       0.29083905       0.01157136       0.58406111 </v>
    <v>       0.34660672       0.12574818       0.53344778 </v>
    <v>       0.42707212       0.11359762       0.66007937 </v>
    <v>       0.07777980       0.66553522       0.47023229 </v>
    <v>       0.33366092       0.41167509       0.47074531 </v>
    <v>       0.58771661       0.92140964       0.47010964 </v>
    <v>       0.84868050       0.26017426       0.62654216 </v>
    <v>       0.73980345       0.58827092       0.62638615 </v>
    <v>       0.41118585       0.15090275       0.62610248 </v>
    <v>       0.06144787       0.44885018       0.53835360 </v>
    <v>       0.55083461       0.61198978       0.53835101 </v>
    <v>       0.38751475       0.93830869       0.53812147 </v>
    <v>       0.93986015       0.53076043       0.49324830 </v>
    <v>       0.46846847       0.40834590       0.49365516 </v>
    <v>       0.59106906       0.05944338       0.49313221 </v>
   </varray>
  </structure>
  <varray name="forces" >
   <v>      -0.00557712       0.00109115      -0.00205205 </v>
   <v>       0.00311081      -0.00240488       0.00169219 </v>
   <v>      -0.00137518      -0.00419051       0.00337106 </v>
   <v>       0.00701065       0.00113444       0.00001423 </v>
   <v>       0.00157261       0.00067903       0.00002183 </v>
   <v>       0.00254506      -0.00057034       0.00022520 </v>
   <v>       0.00045684       0.00062799      -0.00035845 </v>
   <v>      -0.00000273      -0.00270257      -0.00371981 </v>
   <v>      -0.00079544      -0.00517403      -0.00061904 </v>
   <v>      -0.00864720      -0.00149462      -0.00002437 </v>
   <v>      -0.00202082       0.00194221      -0.00284783 </v>
   <v>      -0.00419217      -0.00077972      -0.00122028 </v>
   <v>       0.00239191       0.00098910       0.00294618 </v>
   <v>      -0.00112426      -0.00177899      -0.00201317 </v>
   <v>      -0.00117790      -0.00043165      -0.00028074 </v>
   <v>      -0.00245836       0.00305064       0.00166996 </v>
   <v>      -0.00223655      -0.00356567       0.00046654 </v>
   <v>      -0.00001535       0.00388754       0.00196915 </v>
   <v>      -0.00451547       0.00309078       0.00329735 </v>
   <v>       0.00120670      -0.00275838       0.00013632 </v>
   <v>      -0.00326906      -0.00102339      -0.00801034 </v>
   <v>       0.00601479       0.00146292       0.00096976 </v>
   <v>       0.00278239       0.00005173       0.00157378 </v>
   <v>       0.00332512      -0.00010603       0.00308818 </v>
   <v>       0.00440656       0.00236681      -0.00406840 </v>
   <v>       0.00486430       0.00434027       0.00054232 </v>
   <v>      -0.00266892       0.00002167      -0.00285510 </v>
   <v>       0.00011681       0.00113359      -0.00095148 </v>
   <v>       0.00235693      -0.00081440       0.00119996 </v>
   <v>      -0.00158781      -0.00134542       0.00075785 </v>
   <v>       0.00196372      -0.00316660       0.00015465 </v>
   <v>      -0.00079474      -0.00311526       0.00019630 </v>
   <v>       0.00466511       0.00630473      -0.00018074 </v>
   <v>      -0.00287031       0.00258605      -0.00121002 </v>
   <v>      -0.00248565       0.00178700       0.00515875 </v>
   <v>      -0.00313543       0.00295049      -0.00028573 </v>
   <v>       0.00221565      -0.00137152       0.00444141 </v>
   <v>       0.00188606       0.00216457       0.00354297 </v>
   <v>       0.00063991      -0.00363379      -0.00104293 </v>
   <v>       0.00056669       0.00190633       0.00275149 </v>
   <v>       0.00131796      -0.00032483       0.00553349 </v>
   <v>       0.00557460       0.00136370       0.00006250 </v>
   <v>      -0.00338638       0.00127963      -0.00368944 </v>
   <v>       0.00142991      -0.00609245      -0.00575123 </v>
   <v>       0.00079631       0.00043970      -0.00296911 </v>
   <v>      -0.00036365      -0.00053827       0.00237727 </v>
   <v>       0.00027253       0.00106644       0.00178123 </v>
   <v>      -0.00006098      -0.00065294       0.00216109 </v>
   <v>      -0.00746442       0.00080076      -0.00494561 </v>
   <v>       0.00920178      -0.00478296      -0.00047147 </v>
   <v>      -0.00165305       0.00163613      -0.00177747 </v>
   <v>       0.00128370      -0.00052832       0.00142102 </v>
   <v>      -0.00620899       0.00419967       0.00071272 </v>
   <v>      -0.00388746      -0.00100751      -0.00289191 </v>
  </varray>
  <varray name="stress" >
   <v>       0.02843154       0.01817852       0.00109635 </v>
   <v>       0.01817852       0.01184830       0.00143563 </v>
   <v>       0.00109634       0.00143563      -0.30769441 </v>
  </varray>
  <energy>
   <i name="e_fr_energy">   -378.03375067 </i>
   <i name="e_wo_entrp">   -378.03375067 </i>
   <i name="e_0_energy">     -0.00000000 </i>
  </energy>
  <time name="totalsc">  233.39  235.14</time>
  <eigenvalues>
   <array>
    <dimension dim="1">band</dimension>
    <dimension dim="2">kpoint</dimension>
    <dimension dim="3">spin</dimension>
    <field>eigene</field>
    <field>occ</field>
    <set>
     <set comment="spin 1">
      <set comment="kpoint 1">
       <r>  -25.0396    1.0000 </r>
       <r>  -25.0383    1.0000 </r>
       <r>  -25.0381    1.0000 </r>
       <r>  -23.9821    1.0000 </r>
       <r>  -23.9627    1.0000 </r>
       <r>  -23.9622    1.0000 </r>
       <r>  -22.2020    1.0000 </r>
       <r>  -22.1064    1.0000 </r>
       <r>  -22.1057    1.0000 </r>
       <r>  -21.1288    1.0000 </r>
       <r>  -20.8450    1.0000 </r>
       <r>  -19.7687    1.0000 </r>
       <r>  -19.7682    1.0000 </r>
       <r>  -18.7717    1.0000 </r>
       <r>  -18.6695    1.0000 </r>
       <r>  -18.6691    1.0000 </r>
       <r>  -17.5692    1.0000 </r>
       <r>  -17.5677    1.0000 </r>
       <r>  -16.9219    1.0000 </r>
       <r>  -16.8519    1.0000 </r>
       <r>  -16.8512    1.0000 </r>
       <r>  -15.9138    1.0000 </r>
       <r>  -15.8962    1.0000 </r>
       <r>  -15.8947    1.0000 </r>
       <r>  -15.0774    1.0000 </r>
       <r>  -14.9322    1.0000 </r>
       <r>  -14.9320    1.0000 </r>
       <r>  -14.4496    1.0000 </r>
       <r>  -14.4487    1.0000 </r>
       <r>  -13.6822    1.0000 </r>
       <r>  -13.6814    1.0000 </r>
       <r>  -13.0764    1.0000 </r>
       <r>  -12.6794    1.0000 </r>
       <r>  -12.5230    1.0000 </r>
       <r>  -12.2764    1.0000 </r>
       <r>  -12.2757    1.0000 </r>
       <r>  -11.7882    1.0000 </r>
       <r>  -11.7571    1.0000 </r>
       <r>  -11.7564    1.0000 </r>
       <r>  -11.3149    1.0000 </r>
       <r>  -11.2612    1.0000 </r>
       <r>  -11.2601    1.0000 </r>
       <r>  -11.0539    1.0000 </r>
       <r>  -10.7073    1.0000 </r>
       <r>  -10.6512    1.0000 </r>
       <r>  -10.6502    1.0000 </r>
       <r>  -10.5658    1.0000 </r>
       <r>  -10.2629    1.0000 </r>
       <r>  -10.2619    1.0000 </r>
       <r>  -10.1535    1.0000 </r>
       <r>   -9.9154    1.0000 </r>
       <r>   -9.8836    1.0000 </r>
       <r>   -9.8820    1.0000 </r>
       <r>   -9.6982    1.0000 </r>
       <r>   -9.6975    1.0000 </r>
       <r>   -9.5588    1.0000 </r>
       <r>   -9.5197    1.0000 </r>
       <r>   -9.1125    1.0000 </r>
       <r>   -9.1066    1.0000 </r>
       <r>   -9.1035    1.0000 </r>
       <r>   -8.3922    1.0000 </r>
       <r>   -8.2493    1.0000 </r>
       <r>   -8.2488    1.0000 </r>
       <r>   -7.9788    1.0000 </r>
       <r>   -7.9764    1.0000 </r>
       <r>   -7.9377    1.0000 </r>
       <r>   -7.9361    1.0000 </r>
       <r>   -7.5747    1.0000 </r>
       <r>   -7.4609    1.0000 </r>
       <r>   -7.4278    1.0000 </r>
       <r>   -7.4263    1.0000 </r>
       <r>   -7.0391    1.0000 </r>
       <r>   -7.0385    1.0000 </r>
       <r>   -6.4479    1.0000 </r>
       <r>   -6.4470    1.0000 </r>
       <r>   -6.3512    1.0000 </r>
       <r>   -6.0683    1.0000 </r>
       <r>   -6.0638    1.0000 </r>
       <r>   -6.0631    1.0000 </r>
       <r>   -5.7938    1.0000 </r>
       <r>   -5.7930    1.0000 </r>
       <r>   -5.7875    1.0000 </r>
       <r>   -5.1962    1.0000 </r>
       <r>   -5.1236    1.0000 </r>
       <r>   -5.1229    1.0000 </r>
       <r>   -4.8729    1.0000 </r>
       <r>   -4.8726    1.0000 </r>
       <r>   -2.3024    0.0000 </r>
       <r>   -2.3017    0.0000 </r>
       <r>   -1.8431    0.0000 </r>
       <r>   -1.5900    0.0000 </r>
       <r>   -1.5895    0.0000 </r>
       <r>   -1.4446    0.0000 </r>
       <r>   -0.7794    0.0000 </r>
       <r>   -0.7787    0.0000 </r>
       <r>   -0.1192    0.0000 </r>
       <r>    0.2261    0.0000 </r>
       <r>    0.4133    0.0000 </r>
       <r>    0.4149    0.0000 </r>
       <r>    0.5972    0.0000 </r>
       <r>    0.5986    0.0000 </r>
       <r>    0.7267    0.0000 </r>
       <r>    0.8264    0.0000 </r>
       <r>    0.8289    0.0000 </r>
       <r>    0.9635    0.0000 </r>
       <r>    0.9871    0.0000 </r>
       <r>    1.0243    0.0000 </r>
       <r>    1.0246    0.0000 </r>
       <r>    1.2096    0.0000 </r>
       <r>    1.3622    0.0000 </r>
       <r>    1.3642    0.0000 </r>
       <r>    1.5694    0.0000 </r>
       <r>    1.6141    0.0000 </r>
       <r>    1.6881    0.0000 </r>
       <r>    1.7701    0.0000 </r>
       <r>    1.7714    0.0000 </r>
       <r>    1.8153    0.0000 </r>
       <r>    1.8171    0.0000 </r>
       <r>    1.8199    0.0000 </r>
       <r>    1.8964    0.0000 </r>
       <r>    1.9916    0.0000 </r>
       <r>    1.9945    0.0000 </r>
       <r>    2.0142    0.0000 </r>
       <r>    2.1189    0.0000 </r>
       <r>    2.2860    0.0000 </r>
       <r>    2.3574    0.0000 </r>
       <r>    2.3611    0.0000 </r>
       <r>    2.4295    0.0000 </r>
      </set>
      <set comment="kpoint 2">
       <r>  -25.0396    1.0000 </r>
       <r>  -25.0383    1.0000 </r>
       <r>  -25.0381    1.0000 </r>
       <r>  -23.9821    1.0000 </r>
       <r>  -23.9628    1.0000 </r>
       <r>  -23.9622    1.0000 </r>
       <r>  -22.2018    1.0000 </r>
       <r>  -22.1065    1.0000 </r>
       <r>  -22.1057    1.0000 </r>
       <r>  -21.1287    1.0000 </r>
       <r>  -20.8451    1.0000 </r>
       <r>  -19.7687    1.0000 </r>
       <r>  -19.7673    1.0000 </r>
       <r>  -18.7849    1.0000 </r>
       <r>  -18.6693    1.0000 </r>
       <r>  -18.6558    1.0000 </r>
       <r>  -17.5698    1.0000 </r>
       <r>  -17.5686    1.0000 </r>
       <r>  -16.9221    1.0000 </r>
       <r>  -16.8515    1.0000 </r>
       <r>  -16.8509    1.0000 </r>
       <r>  -15.9150    1.0000 </r>
       <r>  -15.8959    1.0000 </r>
       <r>  -15.8937    1.0000 </r>
       <r>  -15.0776    1.0000 </r>
       <r>  -14.9333    1.0000 </r>
       <r>  -14.9331    1.0000 </r>
       <r>  -14.4478    1.0000 </r>
       <r>  -14.4468    1.0000 </r>
       <r>  -13.6835    1.0000 </r>
       <r>  -13.6821    1.0000 </r>
       <r>  -13.0754    1.0000 </r>
       <r>  -12.6790    1.0000 </r>
       <r>  -12.5242    1.0000 </r>
       <r>  -12.2771    1.0000 </r>
       <r>  -12.2759    1.0000 </r>
       <r>  -11.7891    1.0000 </r>
       <r>  -11.7568    1.0000 </r>
       <r>  -11.7558    1.0000 </r>
       <r>  -11.3148    1.0000 </r>
       <r>  -11.2612    1.0000 </r>
       <r>  -11.2584    1.0000 </r>
       <r>  -11.0539    1.0000 </r>
       <r>  -10.7073    1.0000 </r>
       <r>  -10.6516    1.0000 </r>
       <r>  -10.6511    1.0000 </r>
       <r>  -10.5640    1.0000 </r>
       <r>  -10.2627    1.0000 </r>
       <r>  -10.2622    1.0000 </r>
       <r>  -10.1541    1.0000 </r>
       <r>   -9.9179    1.0000 </r>
       <r>   -9.8841    1.0000 </r>
       <r>   -9.8807    1.0000 </r>
       <r>   -9.6984    1.0000 </r>
       <r>   -9.6978    1.0000 </r>
       <r>   -9.5582    1.0000 </r>
       <r>   -9.5185    1.0000 </r>
       <r>   -9.1122    1.0000 </r>
       <r>   -9.1063    1.0000 </r>
       <r>   -9.1036    1.0000 </r>
       <r>   -8.3956    1.0000 </r>
       <r>   -8.2490    1.0000 </r>
       <r>   -8.2482    1.0000 </r>
       <r>   -7.9781    1.0000 </r>
       <r>   -7.9756    1.0000 </r>
       <r>   -7.9377    1.0000 </r>
       <r>   -7.9356    1.0000 </r>
       <r>   -7.5745    1.0000 </r>
       <r>   -7.4611    1.0000 </r>
       <r>   -7.4277    1.0000 </r>
       <r>   -7.4262    1.0000 </r>
       <r>   -7.0391    1.0000 </r>
       <r>   -7.0381    1.0000 </r>
       <r>   -6.4483    1.0000 </r>
       <r>   -6.4472    1.0000 </r>
       <r>   -6.3512    1.0000 </r>
       <r>   -6.0881    1.0000 </r>
       <r>   -6.0633    1.0000 </r>
       <r>   -6.0457    1.0000 </r>
       <r>   -5.8056    1.0000 </r>
       <r>   -5.7938    1.0000 </r>
       <r>   -5.7726    1.0000 </r>
       <r>   -5.1960    1.0000 </r>
       <r>   -5.1236    1.0000 </r>
       <r>   -5.1229    1.0000 </r>
       <r>   -4.8733    1.0000 </r>
       <r>   -4.8730    1.0000 </r>
       <r>   -2.3019    0.0000 </r>
       <r>   -2.3013    0.0000 </r>
       <r>   -1.8437    0.0000 </r>
       <r>   -1.5904    0.0000 </r>
       <r>   -1.5898    0.0000 </r>
       <r>   -1.4460    0.0000 </r>
       <r>   -0.7785    0.0000 </r>
       <r>   -0.7763    0.0000 </r>
       <r>   -0.1186    0.0000 </r>
       <r>    0.2263    0.0000 </r>
       <r>    0.4118    0.0000 </r>
       <r>    0.4140    0.0000 </r>
       <r>    0.5956    0.0000 </r>
       <r>    0.5976    0.0000 </r>
       <r>    0.7292    0.0000 </r>
       <r>    0.8239    0.0000 </r>
       <r>    0.8265    0.0000 </r>
       <r>    0.9644    0.0000 </r>
       <r>    0.9852    0.0000 </r>
       <r>    1.0248    0.0000 </r>
       <r>    1.0285    0.0000 </r>
       <r>    1.2106    0.0000 </r>
       <r>    1.3633    0.0000 </r>
       <r>    1.3656    0.0000 </r>
       <r>    1.5715    0.0000 </r>
       <r>    1.6156    0.0000 </r>
       <r>    1.6872    0.0000 </r>
       <r>    1.7524    0.0000 </r>
       <r>    1.7628    0.0000 </r>
       <r>    1.8102    0.0000 </r>
       <r>    1.8256    0.0000 </r>
       <r>    1.8372    0.0000 </r>
       <r>    1.9051    0.0000 </r>
       <r>    1.9853    0.0000 </r>
       <r>    1.9936    0.0000 </r>
       <r>    2.0185    0.0000 </r>
       <r>    2.1180    0.0000 </r>
       <r>    2.2864    0.0000 </r>
       <r>    2.3529    0.0000 </r>
       <r>    2.3669    0.0000 </r>
       <r>    2.4321    0.0000 </r>
      </set>
      <set comment="kpoint 3">
       <r>  -25.0396    1.0000 </r>
       <r>  -25.0383    1.0000 </r>
       <r>  -25.0381    1.0000 </r>
       <r>  -23.9820    1.0000 </r>
       <r>  -23.9628    1.0000 </r>
       <r>  -23.9622    1.0000 </r>
       <r>  -22.2014    1.0000 </r>
       <r>  -22.1069    1.0000 </r>
       <r>  -22.1058    1.0000 </r>
       <r>  -21.1287    1.0000 </r>
       <r>  -20.8454    1.0000 </r>
       <r>  -19.7687    1.0000 </r>
       <r>  -19.7648    1.0000 </r>
       <r>  -18.8137    1.0000 </r>
       <r>  -18.6691    1.0000 </r>
       <r>  -18.6262    1.0000 </r>
       <r>  -17.5728    1.0000 </r>
       <r>  -17.5701    1.0000 </r>
       <r>  -16.9225    1.0000 </r>
       <r>  -16.8510    1.0000 </r>
       <r>  -16.8494    1.0000 </r>
       <r>  -15.9180    1.0000 </r>
       <r>  -15.8957    1.0000 </r>
       <r>  -15.8906    1.0000 </r>
       <r>  -15.0783    1.0000 </r>
       <r>  -14.9364    1.0000 </r>
       <r>  -14.9362    1.0000 </r>
       <r>  -14.4428    1.0000 </r>
       <r>  -14.4410    1.0000 </r>
       <r>  -13.6872    1.0000 </r>
       <r>  -13.6843    1.0000 </r>
       <r>  -13.0724    1.0000 </r>
       <r>  -12.6776    1.0000 </r>
       <r>  -12.5276    1.0000 </r>
       <r>  -12.2793    1.0000 </r>
       <r>  -12.2764    1.0000 </r>
       <r>  -11.7914    1.0000 </r>
       <r>  -11.7563    1.0000 </r>
       <r>  -11.7540    1.0000 </r>
       <r>  -11.3145    1.0000 </r>
       <r>  -11.2610    1.0000 </r>
       <r>  -11.2534    1.0000 </r>
       <r>  -11.0541    1.0000 </r>
       <r>  -10.7071    1.0000 </r>
       <r>  -10.6556    1.0000 </r>
       <r>  -10.6508    1.0000 </r>
       <r>  -10.5591    1.0000 </r>
       <r>  -10.2633    1.0000 </r>
       <r>  -10.2623    1.0000 </r>
       <r>  -10.1557    1.0000 </r>
       <r>   -9.9241    1.0000 </r>
       <r>   -9.8858    1.0000 </r>
       <r>   -9.8776    1.0000 </r>
       <r>   -9.7001    1.0000 </r>
       <r>   -9.6975    1.0000 </r>
       <r>   -9.5567    1.0000 </r>
       <r>   -9.5147    1.0000 </r>
       <r>   -9.1114    1.0000 </r>
       <r>   -9.1051    1.0000 </r>
       <r>   -9.1038    1.0000 </r>
       <r>   -8.4053    1.0000 </r>
       <r>   -8.2494    1.0000 </r>
       <r>   -8.2453    1.0000 </r>
       <r>   -7.9780    1.0000 </r>
       <r>   -7.9717    1.0000 </r>
       <r>   -7.9375    1.0000 </r>
       <r>   -7.9339    1.0000 </r>
       <r>   -7.5737    1.0000 </r>
       <r>   -7.4618    1.0000 </r>
       <r>   -7.4275    1.0000 </r>
       <r>   -7.4261    1.0000 </r>
       <r>   -7.0391    1.0000 </r>
       <r>   -7.0367    1.0000 </r>
       <r>   -6.4500    1.0000 </r>
       <r>   -6.4471    1.0000 </r>
       <r>   -6.3512    1.0000 </r>
       <r>   -6.1116    1.0000 </r>
       <r>   -6.0633    1.0000 </r>
       <r>   -6.0278    1.0000 </r>
       <r>   -5.8184    1.0000 </r>
       <r>   -5.7942    1.0000 </r>
       <r>   -5.7528    1.0000 </r>
       <r>   -5.1954    1.0000 </r>
       <r>   -5.1234    1.0000 </r>
       <r>   -5.1229    1.0000 </r>
       <r>   -4.8751    1.0000 </r>
       <r>   -4.8737    1.0000 </r>
       <r>   -2.3010    0.0000 </r>
       <r>   -2.2997    0.0000 </r>
       <r>   -1.8456    0.0000 </r>
       <r>   -1.5915    0.0000 </r>
       <r>   -1.5907    0.0000 </r>
       <r>   -1.4502    0.0000 </r>
       <r>   -0.7772    0.0000 </r>
       <r>   -0.7679    0.0000 </r>
       <r>   -0.1168    0.0000 </r>
       <r>    0.2269    0.0000 </r>
       <r>    0.4072    0.0000 </r>
       <r>    0.4118    0.0000 </r>
       <r>    0.5885    0.0000 </r>
       <r>    0.5976    0.0000 </r>
       <r>    0.7357    0.0000 </r>
       <r>    0.8146    0.0000 </r>
       <r>    0.8222    0.0000 </r>
       <r>    0.9672    0.0000 </r>
       <r>    0.9803    0.0000 </r>
       <r>    1.0257    0.0000 </r>
       <r>    1.0395    0.0000 </r>
       <r>    1.2136    0.0000 </r>
       <r>    1.3629    0.0000 </r>
       <r>    1.3734    0.0000 </r>
       <r>    1.5775    0.0000 </r>
       <r>    1.6199    0.0000 </r>
       <r>    1.6816    0.0000 </r>
       <r>    1.7262    0.0000 </r>
       <r>    1.7462    0.0000 </r>
       <r>    1.7980    0.0000 </r>
       <r>    1.8446    0.0000 </r>
       <r>    1.8641    0.0000 </r>
       <r>    1.9241    0.0000 </r>
       <r>    1.9719    0.0000 </r>
       <r>    1.9929    0.0000 </r>
       <r>    2.0267    0.0000 </r>
       <r>    2.1156    0.0000 </r>
       <r>    2.2837    0.0000 </r>
       <r>    2.3431    0.0000 </r>
       <r>    2.3713    0.0000 </r>
       <r>    2.4318    0.0000 </r>
      </set>
      <set comment="kpoint 4">
       <r>  -25.0396    1.0000 </r>
       <r>  -25.0383    1.0000 </r>
       <r>  -25.0381    1.0000 </r>
       <r>  -23.9818    1.0000 </r>
       <r>  -23.9629    1.0000 </r>
       <r>  -23.9623    1.0000 </r>
       <r>  -22.2007    1.0000 </r>
       <r>  -22.1076    1.0000 </r>
       <r>  -22.1058    1.0000 </r>
       <r>  -21.1287    1.0000 </r>
       <r>  -20.8458    1.0000 </r>
       <r>  -19.7688    1.0000 </r>
       <r>  -19.7606    1.0000 </r>
       <r>  -18.8477    1.0000 </r>
       <r>  -18.6688    1.0000 </r>
       <r>  -18.5912    1.0000 </r>
       <r>  -17.5785    1.0000 </r>
       <r>  -17.5717    1.0000 </r>
       <r>  -16.9231    1.0000 </r>
       <r>  -16.8504    1.0000 </r>
       <r>  -16.8468    1.0000 </r>
       <r>  -15.9217    1.0000 </r>
       <r>  -15.8956    1.0000 </r>
       <r>  -15.8863    1.0000 </r>
       <r>  -15.0795    1.0000 </r>
       <r>  -14.9414    1.0000 </r>
       <r>  -14.9410    1.0000 </r>
       <r>  -14.4347    1.0000 </r>
       <r>  -14.4315    1.0000 </r>
       <r>  -13.6934    1.0000 </r>
       <r>  -13.6879    1.0000 </r>
       <r>  -13.0674    1.0000 </r>
       <r>  -12.6752    1.0000 </r>
       <r>  -12.5331    1.0000 </r>
       <r>  -12.2830    1.0000 </r>
       <r>  -12.2771    1.0000 </r>
       <r>  -11.7945    1.0000 </r>
       <r>  -11.7557    1.0000 </r>
       <r>  -11.7516    1.0000 </r>
       <r>  -11.3138    1.0000 </r>
       <r>  -11.2608    1.0000 </r>
       <r>  -11.2452    1.0000 </r>
       <r>  -11.0545    1.0000 </r>
       <r>  -10.7069    1.0000 </r>
       <r>  -10.6613    1.0000 </r>
       <r>  -10.6504    1.0000 </r>
       <r>  -10.5517    1.0000 </r>
       <r>  -10.2652    1.0000 </r>
       <r>  -10.2616    1.0000 </r>
       <r>  -10.1583    1.0000 </r>
       <r>   -9.9327    1.0000 </r>
       <r>   -9.8885    1.0000 </r>
       <r>   -9.8739    1.0000 </r>
       <r>   -9.7025    1.0000 </r>
       <r>   -9.6969    1.0000 </r>
       <r>   -9.5553    1.0000 </r>
       <r>   -9.5079    1.0000 </r>
       <r>   -9.1107    1.0000 </r>
       <r>   -9.1044    1.0000 </r>
       <r>   -9.1024    1.0000 </r>
       <r>   -8.4201    1.0000 </r>
       <r>   -8.2500    1.0000 </r>
       <r>   -8.2417    1.0000 </r>
       <r>   -7.9786    1.0000 </r>
       <r>   -7.9660    1.0000 </r>
       <r>   -7.9373    1.0000 </r>
       <r>   -7.9301    1.0000 </r>
       <r>   -7.5726    1.0000 </r>
       <r>   -7.4629    1.0000 </r>
       <r>   -7.4275    1.0000 </r>
       <r>   -7.4256    1.0000 </r>
       <r>   -7.0392    1.0000 </r>
       <r>   -7.0344    1.0000 </r>
       <r>   -6.4533    1.0000 </r>
       <r>   -6.4468    1.0000 </r>
       <r>   -6.3513    1.0000 </r>
       <r>   -6.1361    1.0000 </r>
       <r>   -6.0633    1.0000 </r>
       <r>   -6.0120    1.0000 </r>
       <r>   -5.8292    1.0000 </r>
       <r>   -5.7949    1.0000 </r>
       <r>   -5.7307    1.0000 </r>
       <r>   -5.1945    1.0000 </r>
       <r>   -5.1233    1.0000 </r>
       <r>   -5.1228    1.0000 </r>
       <r>   -4.8782    1.0000 </r>
       <r>   -4.8748    1.0000 </r>
       <r>   -2.2998    0.0000 </r>
       <r>   -2.2969    0.0000 </r>
       <r>   -1.8488    0.0000 </r>
       <r>   -1.5935    0.0000 </r>
       <r>   -1.5920    0.0000 </r>
       <r>   -1.4567    0.0000 </r>
       <r>   -0.7752    0.0000 </r>
       <r>   -0.7542    0.0000 </r>
       <r>   -0.1138    0.0000 </r>
       <r>    0.2277    0.0000 </r>
       <r>    0.3994    0.0000 </r>
       <r>    0.4084    0.0000 </r>
       <r>    0.5779    0.0000 </r>
       <r>    0.5975    0.0000 </r>
       <r>    0.7441    0.0000 </r>
       <r>    0.8006    0.0000 </r>
       <r>    0.8165    0.0000 </r>
       <r>    0.9706    0.0000 </r>
       <r>    0.9748    0.0000 </r>
       <r>    1.0272    0.0000 </r>
       <r>    1.0556    0.0000 </r>
       <r>    1.2186    0.0000 </r>
       <r>    1.3621    0.0000 </r>
       <r>    1.3859    0.0000 </r>
       <r>    1.5869    0.0000 </r>
       <r>    1.6246    0.0000 </r>
       <r>    1.6635    0.0000 </r>
       <r>    1.7132    0.0000 </r>
       <r>    1.7291    0.0000 </r>
       <r>    1.7847    0.0000 </r>
       <r>    1.8656    0.0000 </r>
       <r>    1.8888    0.0000 </r>
       <r>    1.9366    0.0000 </r>
       <r>    1.9580    0.0000 </r>
       <r>    2.0011    0.0000 </r>
       <r>    2.0373    0.0000 </r>
       <r>    2.1118    0.0000 </r>
       <r>    2.2780    0.0000 </r>
       <r>    2.3319    0.0000 </r>
       <r>    2.3736    0.0000 </r>
       <r>    2.4181    0.0000 </r>
      </set>
      <set comment="kpoint 5">
       <r>  -25.0396    1.0000 </r>
       <r>  -25.0383    1.0000 </r>
       <r>  -25.0381    1.0000 </r>
       <r>  -23.9816    1.0000 </r>
       <r>  -23.9631    1.0000 </r>
       <r>  -23.9623    1.0000 </r>
       <r>  -22.1997    1.0000 </r>
       <r>  -22.1086    1.0000 </r>
       <r>  -22.1058    1.0000 </r>
       <r>  -21.1287    1.0000 </r>
       <r>  -20.8465    1.0000 </r>
       <r>  -19.7688    1.0000 </r>
       <r>  -19.7549    1.0000 </r>
       <r>  -18.8833    1.0000 </r>
       <r>  -18.6683    1.0000 </r>
       <r>  -18.5540    1.0000 </r>
       <r>  -17.5865    1.0000 </r>
       <r>  -17.5737    1.0000 </r>
       <r>  -16.9238    1.0000 </r>
       <r>  -16.8497    1.0000 </r>
       <r>  -16.8433    1.0000 </r>
       <r>  -15.9257    1.0000 </r>
       <r>  -15.8955    1.0000 </r>
       <r>  -15.8817    1.0000 </r>
       <r>  -15.0811    1.0000 </r>
       <r>  -14.9481    1.0000 </r>
       <r>  -14.9471    1.0000 </r>
       <r>  -14.4238    1.0000 </r>
       <r>  -14.4186    1.0000 </r>
       <r>  -13.7019    1.0000 </r>
       <r>  -13.6929    1.0000 </r>
       <r>  -13.0607    1.0000 </r>
       <r>  -12.6720    1.0000 </r>
       <r>  -12.5407    1.0000 </r>
       <r>  -12.2882    1.0000 </r>
       <r>  -12.2780    1.0000 </r>
       <r>  -11.7979    1.0000 </r>
       <r>  -11.7549    1.0000 </r>
       <r>  -11.7492    1.0000 </r>
       <r>  -11.3126    1.0000 </r>
       <r>  -11.2605    1.0000 </r>
       <r>  -11.2343    1.0000 </r>
       <r>  -11.0549    1.0000 </r>
       <r>  -10.7067    1.0000 </r>
       <r>  -10.6680    1.0000 </r>
       <r>  -10.6497    1.0000 </r>
       <r>  -10.5425    1.0000 </r>
       <r>  -10.2680    1.0000 </r>
       <r>  -10.2608    1.0000 </r>
       <r>  -10.1619    1.0000 </r>
       <r>   -9.9428    1.0000 </r>
       <r>   -9.8921    1.0000 </r>
       <r>   -9.8705    1.0000 </r>
       <r>   -9.7051    1.0000 </r>
       <r>   -9.6961    1.0000 </r>
       <r>   -9.5546    1.0000 </r>
       <r>   -9.4982    1.0000 </r>
       <r>   -9.1105    1.0000 </r>
       <r>   -9.1047    1.0000 </r>
       <r>   -9.0984    1.0000 </r>
       <r>   -8.4385    1.0000 </r>
       <r>   -8.2509    1.0000 </r>
       <r>   -8.2380    1.0000 </r>
       <r>   -7.9795    1.0000 </r>
       <r>   -7.9607    1.0000 </r>
       <r>   -7.9370    1.0000 </r>
       <r>   -7.9224    1.0000 </r>
       <r>   -7.5710    1.0000 </r>
       <r>   -7.4644    1.0000 </r>
       <r>   -7.4277    1.0000 </r>
       <r>   -7.4247    1.0000 </r>
       <r>   -7.0393    1.0000 </r>
       <r>   -7.0311    1.0000 </r>
       <r>   -6.4581    1.0000 </r>
       <r>   -6.4462    1.0000 </r>
       <r>   -6.3513    1.0000 </r>
       <r>   -6.1609    1.0000 </r>
       <r>   -6.0633    1.0000 </r>
       <r>   -5.9984    1.0000 </r>
       <r>   -5.8384    1.0000 </r>
       <r>   -5.7958    1.0000 </r>
       <r>   -5.7066    1.0000 </r>
       <r>   -5.1932    1.0000 </r>
       <r>   -5.1233    1.0000 </r>
       <r>   -5.1225    1.0000 </r>
       <r>   -4.8825    1.0000 </r>
       <r>   -4.8764    1.0000 </r>
       <r>   -2.2982    0.0000 </r>
       <r>   -2.2928    0.0000 </r>
       <r>   -1.8534    0.0000 </r>
       <r>   -1.5963    0.0000 </r>
       <r>   -1.5940    0.0000 </r>
       <r>   -1.4650    0.0000 </r>
       <r>   -0.7724    0.0000 </r>
       <r>   -0.7358    0.0000 </r>
       <r>   -0.1096    0.0000 </r>
       <r>    0.2286    0.0000 </r>
       <r>    0.3890    0.0000 </r>
       <r>    0.4041    0.0000 </r>
       <r>    0.5651    0.0000 </r>
       <r>    0.5968    0.0000 </r>
       <r>    0.7500    0.0000 </r>
       <r>    0.7869    0.0000 </r>
       <r>    0.8098    0.0000 </r>
       <r>    0.9645    0.0000 </r>
       <r>    0.9790    0.0000 </r>
       <r>    1.0292    0.0000 </r>
       <r>    1.0756    0.0000 </r>
       <r>    1.2254    0.0000 </r>
       <r>    1.3616    0.0000 </r>
       <r>    1.4019    0.0000 </r>
       <r>    1.5974    0.0000 </r>
       <r>    1.6173    0.0000 </r>
       <r>    1.6489    0.0000 </r>
       <r>    1.7078    0.0000 </r>
       <r>    1.7178    0.0000 </r>
       <r>    1.7731    0.0000 </r>
       <r>    1.8836    0.0000 </r>
       <r>    1.9059    0.0000 </r>
       <r>    1.9333    0.0000 </r>
       <r>    1.9508    0.0000 </r>
       <r>    2.0224    0.0000 </r>
       <r>    2.0528    0.0000 </r>
       <r>    2.1077    0.0000 </r>
       <r>    2.2669    0.0000 </r>
       <r>    2.3248    0.0000 </r>
       <r>    2.3744    0.0000 </r>
       <r>    2.4115    0.0000 </r>
      </set>
      <set comment="kpoint 6">
       <r>  -25.0396    1.0000 </r>
       <r>  -25.0383    1.0000 </r>
       <r>  -25.0381    1.0000 </r>
       <r>  -23.9814    1.0000 </r>
       <r>  -23.9633    1.0000 </r>
       <r>  -23.9623    1.0000 </r>
       <r>  -22.1985    1.0000 </r>
       <r>  -22.1099    1.0000 </r>
       <r>  -22.1058    1.0000 </r>
       <r>  -21.1286    1.0000 </r>
       <r>  -20.8472    1.0000 </r>
       <r>  -19.7689    1.0000 </r>
       <r>  -19.7475    1.0000 </r>
       <r>  -18.9193    1.0000 </r>
       <r>  -18.6677    1.0000 </r>
       <r>  -18.5159    1.0000 </r>
       <r>  -17.5967    1.0000 </r>
       <r>  -17.5762    1.0000 </r>
       <r>  -16.9247    1.0000 </r>
       <r>  -16.8488    1.0000 </r>
       <r>  -16.8390    1.0000 </r>
       <r>  -15.9296    1.0000 </r>
       <r>  -15.8954    1.0000 </r>
       <r>  -15.8768    1.0000 </r>
       <r>  -15.0833    1.0000 </r>
       <r>  -14.9561    1.0000 </r>
       <r>  -14.9543    1.0000 </r>
       <r>  -14.4106    1.0000 </r>
       <r>  -14.4028    1.0000 </r>
       <r>  -13.7126    1.0000 </r>
       <r>  -13.6992    1.0000 </r>
       <r>  -13.0524    1.0000 </r>
       <r>  -12.6679    1.0000 </r>
       <r>  -12.5501    1.0000 </r>
       <r>  -12.2948    1.0000 </r>
       <r>  -12.2791    1.0000 </r>
       <r>  -11.8011    1.0000 </r>
       <r>  -11.7539    1.0000 </r>
       <r>  -11.7471    1.0000 </r>
       <r>  -11.3108    1.0000 </r>
       <r>  -11.2602    1.0000 </r>
       <r>  -11.2209    1.0000 </r>
       <r>  -11.0555    1.0000 </r>
       <r>  -10.7064    1.0000 </r>
       <r>  -10.6752    1.0000 </r>
       <r>  -10.6488    1.0000 </r>
       <r>  -10.5323    1.0000 </r>
       <r>  -10.2719    1.0000 </r>
       <r>  -10.2598    1.0000 </r>
       <r>  -10.1663    1.0000 </r>
       <r>   -9.9536    1.0000 </r>
       <r>   -9.8967    1.0000 </r>
       <r>   -9.8675    1.0000 </r>
       <r>   -9.7075    1.0000 </r>
       <r>   -9.6951    1.0000 </r>
       <r>   -9.5549    1.0000 </r>
       <r>   -9.4859    1.0000 </r>
       <r>   -9.1110    1.0000 </r>
       <r>   -9.1049    1.0000 </r>
       <r>   -9.0930    1.0000 </r>
       <r>   -8.4595    1.0000 </r>
       <r>   -8.2521    1.0000 </r>
       <r>   -8.2349    1.0000 </r>
       <r>   -7.9807    1.0000 </r>
       <r>   -7.9574    1.0000 </r>
       <r>   -7.9367    1.0000 </r>
       <r>   -7.9100    1.0000 </r>
       <r>   -7.5692    1.0000 </r>
       <r>   -7.4663    1.0000 </r>
       <r>   -7.4280    1.0000 </r>
       <r>   -7.4236    1.0000 </r>
       <r>   -7.0394    1.0000 </r>
       <r>   -7.0269    1.0000 </r>
       <r>   -6.4647    1.0000 </r>
       <r>   -6.4456    1.0000 </r>
       <r>   -6.3513    1.0000 </r>
       <r>   -6.1854    1.0000 </r>
       <r>   -6.0633    1.0000 </r>
       <r>   -5.9868    1.0000 </r>
       <r>   -5.8461    1.0000 </r>
       <r>   -5.7969    1.0000 </r>
       <r>   -5.6809    1.0000 </r>
       <r>   -5.1917    1.0000 </r>
       <r>   -5.1235    1.0000 </r>
       <r>   -5.1220    1.0000 </r>
       <r>   -4.8880    1.0000 </r>
       <r>   -4.8783    1.0000 </r>
       <r>   -2.2963    0.0000 </r>
       <r>   -2.2875    0.0000 </r>
       <r>   -1.8594    0.0000 </r>
       <r>   -1.5996    0.0000 </r>
       <r>   -1.5966    0.0000 </r>
       <r>   -1.4743    0.0000 </r>
       <r>   -0.7689    0.0000 </r>
       <r>   -0.7133    0.0000 </r>
       <r>   -0.1043    0.0000 </r>
       <r>    0.2294    0.0000 </r>
       <r>    0.3767    0.0000 </r>
       <r>    0.3990    0.0000 </r>
       <r>    0.5507    0.0000 </r>
       <r>    0.5947    0.0000 </r>
       <r>    0.7445    0.0000 </r>
       <r>    0.7820    0.0000 </r>
       <r>    0.8042    0.0000 </r>
       <r>    0.9554    0.0000 </r>
       <r>    0.9866    0.0000 </r>
       <r>    1.0324    0.0000 </r>
       <r>    1.0982    0.0000 </r>
       <r>    1.2336    0.0000 </r>
       <r>    1.3620    0.0000 </r>
       <r>    1.4199    0.0000 </r>
       <r>    1.5832    0.0000 </r>
       <r>    1.6152    0.0000 </r>
       <r>    1.6519    0.0000 </r>
       <r>    1.6948    0.0000 </r>
       <r>    1.7216    0.0000 </r>
       <r>    1.7650    0.0000 </r>
       <r>    1.8849    0.0000 </r>
       <r>    1.9046    0.0000 </r>
       <r>    1.9412    0.0000 </r>
       <r>    1.9553    0.0000 </r>
       <r>    2.0432    0.0000 </r>
       <r>    2.0725    0.0000 </r>
       <r>    2.1098    0.0000 </r>
       <r>    2.2544    0.0000 </r>
       <r>    2.3183    0.0000 </r>
       <r>    2.3659    0.0000 </r>
       <r>    2.4060    0.0000 </r>
      </set>
      <set comment="kpoint 7">
       <r>  -25.0396    1.0000 </r>
       <r>  -25.0383    1.0000 </r>
       <r>  -25.0381    1.0000 </r>
       <r>  -23.9811    1.0000 </r>
       <r>  -23.9636    1.0000 </r>
       <r>  -23.9624    1.0000 </r>
       <r>  -22.1970    1.0000 </r>
       <r>  -22.1115    1.0000 </r>
       <r>  -22.1059    1.0000 </r>
       <r>  -21.1286    1.0000 </r>
       <r>  -20.8481    1.0000 </r>
       <r>  -19.7690    1.0000 </r>
       <r>  -19.7387    1.0000 </r>
       <r>  -18.9552    1.0000 </r>
       <r>  -18.6670    1.0000 </r>
       <r>  -18.4775    1.0000 </r>
       <r>  -17.6091    1.0000 </r>
       <r>  -17.5791    1.0000 </r>
       <r>  -16.9255    1.0000 </r>
       <r>  -16.8477    1.0000 </r>
       <r>  -16.8341    1.0000 </r>
       <r>  -15.9334    1.0000 </r>
       <r>  -15.8953    1.0000 </r>
       <r>  -15.8719    1.0000 </r>
       <r>  -15.0861    1.0000 </r>
       <r>  -14.9649    1.0000 </r>
       <r>  -14.9621    1.0000 </r>
       <r>  -14.3954    1.0000 </r>
       <r>  -14.3842    1.0000 </r>
       <r>  -13.7253    1.0000 </r>
       <r>  -13.7067    1.0000 </r>
       <r>  -13.0426    1.0000 </r>
       <r>  -12.6631    1.0000 </r>
       <r>  -12.5610    1.0000 </r>
       <r>  -12.3026    1.0000 </r>
       <r>  -12.2803    1.0000 </r>
       <r>  -11.8041    1.0000 </r>
       <r>  -11.7528    1.0000 </r>
       <r>  -11.7455    1.0000 </r>
       <r>  -11.3086    1.0000 </r>
       <r>  -11.2598    1.0000 </r>
       <r>  -11.2053    1.0000 </r>
       <r>  -11.0561    1.0000 </r>
       <r>  -10.7063    1.0000 </r>
       <r>  -10.6824    1.0000 </r>
       <r>  -10.6477    1.0000 </r>
       <r>  -10.5213    1.0000 </r>
       <r>  -10.2772    1.0000 </r>
       <r>  -10.2586    1.0000 </r>
       <r>  -10.1713    1.0000 </r>
       <r>   -9.9647    1.0000 </r>
       <r>   -9.9019    1.0000 </r>
       <r>   -9.8650    1.0000 </r>
       <r>   -9.7094    1.0000 </r>
       <r>   -9.6940    1.0000 </r>
       <r>   -9.5560    1.0000 </r>
       <r>   -9.4717    1.0000 </r>
       <r>   -9.1120    1.0000 </r>
       <r>   -9.1049    1.0000 </r>
       <r>   -9.0863    1.0000 </r>
       <r>   -8.4822    1.0000 </r>
       <r>   -8.2534    1.0000 </r>
       <r>   -8.2325    1.0000 </r>
       <r>   -7.9823    1.0000 </r>
       <r>   -7.9557    1.0000 </r>
       <r>   -7.9363    1.0000 </r>
       <r>   -7.8938    1.0000 </r>
       <r>   -7.5671    1.0000 </r>
       <r>   -7.4685    1.0000 </r>
       <r>   -7.4285    1.0000 </r>
       <r>   -7.4223    1.0000 </r>
       <r>   -7.0396    1.0000 </r>
       <r>   -7.0217    1.0000 </r>
       <r>   -6.4734    1.0000 </r>
       <r>   -6.4448    1.0000 </r>
       <r>   -6.3514    1.0000 </r>
       <r>   -6.2089    1.0000 </r>
       <r>   -6.0633    1.0000 </r>
       <r>   -5.9768    1.0000 </r>
       <r>   -5.8526    1.0000 </r>
       <r>   -5.7982    1.0000 </r>
       <r>   -5.6540    1.0000 </r>
       <r>   -5.1899    1.0000 </r>
       <r>   -5.1238    1.0000 </r>
       <r>   -5.1213    1.0000 </r>
       <r>   -4.8946    1.0000 </r>
       <r>   -4.8806    1.0000 </r>
       <r>   -2.2940    0.0000 </r>
       <r>   -2.2812    0.0000 </r>
       <r>   -1.8668    0.0000 </r>
       <r>   -1.6036    0.0000 </r>
       <r>   -1.5998    0.0000 </r>
       <r>   -1.4841    0.0000 </r>
       <r>   -0.7650    0.0000 </r>
       <r>   -0.6874    0.0000 </r>
       <r>   -0.0977    0.0000 </r>
       <r>    0.2294    0.0000 </r>
       <r>    0.3632    0.0000 </r>
       <r>    0.3936    0.0000 </r>
       <r>    0.5347    0.0000 </r>
       <r>    0.5904    0.0000 </r>
       <r>    0.7292    0.0000 </r>
       <r>    0.7808    0.0000 </r>
       <r>    0.8045    0.0000 </r>
       <r>    0.9456    0.0000 </r>
       <r>    0.9955    0.0000 </r>
       <r>    1.0374    0.0000 </r>
       <r>    1.1223    0.0000 </r>
       <r>    1.2426    0.0000 </r>
       <r>    1.3639    0.0000 </r>
       <r>    1.4383    0.0000 </r>
       <r>    1.5506    0.0000 </r>
       <r>    1.6282    0.0000 </r>
       <r>    1.6542    0.0000 </r>
       <r>    1.6838    0.0000 </r>
       <r>    1.7313    0.0000 </r>
       <r>    1.7617    0.0000 </r>
       <r>    1.8683    0.0000 </r>
       <r>    1.8922    0.0000 </r>
       <r>    1.9613    0.0000 </r>
       <r>    1.9712    0.0000 </r>
       <r>    2.0602    0.0000 </r>
       <r>    2.0765    0.0000 </r>
       <r>    2.1351    0.0000 </r>
       <r>    2.2434    0.0000 </r>
       <r>    2.3105    0.0000 </r>
       <r>    2.3504    0.0000 </r>
       <r>    2.4008    0.0000 </r>
      </set>
      <set comment="kpoint 8">
       <r>  -25.0396    1.0000 </r>
       <r>  -25.0383    1.0000 </r>
       <r>  -25.0381    1.0000 </r>
       <r>  -23.9808    1.0000 </r>
       <r>  -23.9640    1.0000 </r>
       <r>  -23.9624    1.0000 </r>
       <r>  -22.1952    1.0000 </r>
       <r>  -22.1133    1.0000 </r>
       <r>  -22.1059    1.0000 </r>
       <r>  -21.1285    1.0000 </r>
       <r>  -20.8491    1.0000 </r>
       <r>  -19.7691    1.0000 </r>
       <r>  -19.7284    1.0000 </r>
       <r>  -18.9907    1.0000 </r>
       <r>  -18.6663    1.0000 </r>
       <r>  -18.4391    1.0000 </r>
       <r>  -17.6233    1.0000 </r>
       <r>  -17.5823    1.0000 </r>
       <r>  -16.9264    1.0000 </r>
       <r>  -16.8466    1.0000 </r>
       <r>  -16.8288    1.0000 </r>
       <r>  -15.9370    1.0000 </r>
       <r>  -15.8952    1.0000 </r>
       <r>  -15.8670    1.0000 </r>
       <r>  -15.0896    1.0000 </r>
       <r>  -14.9743    1.0000 </r>
       <r>  -14.9700    1.0000 </r>
       <r>  -14.3787    1.0000 </r>
       <r>  -14.3635    1.0000 </r>
       <r>  -13.7397    1.0000 </r>
       <r>  -13.7155    1.0000 </r>
       <r>  -13.0316    1.0000 </r>
       <r>  -12.6578    1.0000 </r>
       <r>  -12.5730    1.0000 </r>
       <r>  -12.3117    1.0000 </r>
       <r>  -12.2816    1.0000 </r>
       <r>  -11.8066    1.0000 </r>
       <r>  -11.7517    1.0000 </r>
       <r>  -11.7446    1.0000 </r>
       <r>  -11.3059    1.0000 </r>
       <r>  -11.2593    1.0000 </r>
       <r>  -11.1881    1.0000 </r>
       <r>  -11.0568    1.0000 </r>
       <r>  -10.7066    1.0000 </r>
       <r>  -10.6889    1.0000 </r>
       <r>  -10.6462    1.0000 </r>
       <r>  -10.5098    1.0000 </r>
       <r>  -10.2841    1.0000 </r>
       <r>  -10.2575    1.0000 </r>
       <r>  -10.1767    1.0000 </r>
       <r>   -9.9758    1.0000 </r>
       <r>   -9.9077    1.0000 </r>
       <r>   -9.8629    1.0000 </r>
       <r>   -9.7108    1.0000 </r>
       <r>   -9.6928    1.0000 </r>
       <r>   -9.5578    1.0000 </r>
       <r>   -9.4563    1.0000 </r>
       <r>   -9.1137    1.0000 </r>
       <r>   -9.1046    1.0000 </r>
       <r>   -9.0785    1.0000 </r>
       <r>   -8.5059    1.0000 </r>
       <r>   -8.2549    1.0000 </r>
       <r>   -8.2308    1.0000 </r>
       <r>   -7.9841    1.0000 </r>
       <r>   -7.9551    1.0000 </r>
       <r>   -7.9359    1.0000 </r>
       <r>   -7.8750    1.0000 </r>
       <r>   -7.5649    1.0000 </r>
       <r>   -7.4710    1.0000 </r>
       <r>   -7.4290    1.0000 </r>
       <r>   -7.4208    1.0000 </r>
       <r>   -7.0398    1.0000 </r>
       <r>   -7.0155    1.0000 </r>
       <r>   -6.4844    1.0000 </r>
       <r>   -6.4440    1.0000 </r>
       <r>   -6.3515    1.0000 </r>
       <r>   -6.2307    1.0000 </r>
       <r>   -6.0633    1.0000 </r>
       <r>   -5.9682    1.0000 </r>
       <r>   -5.8580    1.0000 </r>
       <r>   -5.7997    1.0000 </r>
       <r>   -5.6264    1.0000 </r>
[...]
       <r>    1.3642    0.0000 </r>
       <r>    1.5694    0.0000 </r>
       <r>    1.6141    0.0000 </r>
       <r>    1.6881    0.0000 </r>
       <r>    1.7701    0.0000 </r>
       <r>    1.7714    0.0000 </r>
       <r>    1.8153    0.0000 </r>
       <r>    1.8171    0.0000 </r>
       <r>    1.8199    0.0000 </r>
       <r>    1.8964    0.0000 </r>
       <r>    1.9916    0.0000 </r>
       <r>    1.9945    0.0000 </r>
       <r>    2.0142    0.0000 </r>
       <r>    2.1189    0.0000 </r>
       <r>    2.2889    0.0000 </r>
       <r>    2.3587    0.0000 </r>
       <r>    2.3627    0.0000 </r>
       <r>    2.4358    0.0000 </r>
      </set>
     </set>
    </set>
   </array>
  </eigenvalues>
  <separator name="orbital magnetization" >
   <v name="MAGDIPOLOUT">      0.00000000      0.00000000      0.00000000</v>
  </separator>
  <dos>
   <i name="efermi">     -4.82915072 </i>
   <total>
    <array>
     <dimension dim="1">gridpoints</dimension>
     <dimension dim="2">spin</dimension>
     <field>energy</field>
     <field>total</field>
     <field>integrated</field>
     <set>
      <set comment="spin 1">
       <r>   -26.4133     0.0000     0.0000 </r>
       <r>   -26.3126     0.0000     0.0000 </r>
       <r>   -26.2119     0.0000     0.0000 </r>
       <r>   -26.1111     0.0000     0.0000 </r>
       <r>   -26.0104     0.0000     0.0000 </r>
       <r>   -25.9096     0.0000     0.0000 </r>
       <r>   -25.8089     0.0000     0.0000 </r>
       <r>   -25.7081     0.0000     0.0000 </r>
       <r>   -25.6074     0.0000     0.0000 </r>
       <r>   -25.5067     0.0000     0.0000 </r>
       <r>   -25.4059     0.0000     0.0000 </r>
       <r>   -25.3052     0.0000     0.0000 </r>
       <r>   -25.2044     0.0000     0.0000 </r>
       <r>   -25.1037     0.0000     0.0000 </r>
       <r>   -25.0029    59.5574     6.0000 </r>
       <r>   -24.9022     0.0000     6.0000 </r>
       <r>   -24.8015     0.0000     6.0000 </r>
       <r>   -24.7007     0.0000     6.0000 </r>
       <r>   -24.6000     0.0000     6.0000 </r>
       <r>   -24.4992     0.0000     6.0000 </r>
       <r>   -24.3985     0.0000     6.0000 </r>
       <r>   -24.2977     0.0000     6.0000 </r>
       <r>   -24.1970     0.0000     6.0000 </r>
       <r>   -24.0963     0.0000     6.0000 </r>
       <r>   -23.9955     0.1968     6.0198 </r>
       <r>   -23.8948    42.0163    12.0000 </r>
       <r>   -23.7940     0.0000    12.0000 </r>
       <r>   -23.6933     0.0000    12.0000 </r>
       <r>   -23.5925     0.0000    12.0000 </r>
       <r>   -23.4918     0.0000    12.0000 </r>
       <r>   -23.3911     0.0000    12.0000 </r>
       <r>   -23.2903     0.0000    12.0000 </r>
       <r>   -23.1896     0.0000    12.0000 </r>
       <r>   -23.0888     0.0000    12.0000 </r>
       <r>   -22.9881     0.0000    12.0000 </r>
       <r>   -22.8873     0.0000    12.0000 </r>
       <r>   -22.7866     0.0000    12.0000 </r>
       <r>   -22.6859     0.0000    12.0000 </r>
       <r>   -22.5851     0.0000    12.0000 </r>
       <r>   -22.4844     0.0000    12.0000 </r>
       <r>   -22.3836     0.0000    12.0000 </r>
       <r>   -22.2829     0.0000    12.0000 </r>
       <r>   -22.1821     8.1765    12.8237 </r>
       <r>   -22.0814    42.6754    17.9994 </r>
       <r>   -21.9807     0.0000    18.0000 </r>
       <r>   -21.8799     0.0000    18.0000 </r>
       <r>   -21.7792     0.0000    18.0000 </r>
       <r>   -21.6784     0.0000    18.0000 </r>
       <r>   -21.5777     0.0000    18.0000 </r>
       <r>   -21.4769     0.0000    18.0000 </r>
       <r>   -21.3762     0.0000    18.0000 </r>
       <r>   -21.2755     0.0000    18.0000 </r>
       <r>   -21.1747     0.0000    18.0000 </r>
       <r>   -21.0740    19.8525    20.0000 </r>
       <r>   -20.9732     0.0000    20.0000 </r>
       <r>   -20.8725     0.3175    20.0320 </r>
       <r>   -20.7717     6.2843    22.0000 </r>
       <r>   -20.6710     0.0000    22.0000 </r>
       <r>   -20.5703     0.0000    22.0000 </r>
       <r>   -20.4695     0.0000    22.0000 </r>
       <r>   -20.3688     0.0000    22.0000 </r>
       <r>   -20.2680     0.0000    22.0000 </r>
       <r>   -20.1673     0.0000    22.0000 </r>
       <r>   -20.0665     0.0000    22.0000 </r>
       <r>   -19.9658     0.0000    22.0000 </r>
       <r>   -19.8651     0.0000    22.0000 </r>
       <r>   -19.7643    16.8311    23.6956 </r>
       <r>   -19.6636     3.9628    24.7659 </r>
       <r>   -19.5628     6.5163    25.5231 </r>
       <r>   -19.4621     2.9772    26.0000 </r>
       <r>   -19.3613     0.2760    26.0278 </r>
       <r>   -19.2606     6.9297    26.9648 </r>
       <r>   -19.1598     1.7370    27.2083 </r>
       <r>   -19.0591     1.4685    27.4146 </r>
       <r>   -18.9584     1.4509    27.5795 </r>
       <r>   -18.8576     1.2919    27.7635 </r>
       <r>   -18.7569     1.9733    27.9988 </r>
       <r>   -18.6561    14.5891    29.4698 </r>
       <r>   -18.5554     1.4617    30.2806 </r>
       <r>   -18.4546     1.3394    30.4349 </r>
       <r>   -18.3539     1.1150    30.6123 </r>
       <r>   -18.2532     1.4707    30.7815 </r>
       <r>   -18.1524     1.5879    30.9600 </r>
       <r>   -18.0517     5.1541    31.5192 </r>
       <r>   -17.9509     3.4809    31.9840 </r>
       <r>   -17.8502     4.8090    32.5845 </r>
       <r>   -17.7494     2.3124    33.1330 </r>
       <r>   -17.6487     2.3547    33.4372 </r>
       <r>   -17.5480    21.1700    35.9995 </r>
       <r>   -17.4472     0.0000    36.0000 </r>
       <r>   -17.3465     0.0000    36.0000 </r>
       <r>   -17.2457     0.0000    36.0000 </r>
       <r>   -17.1450     0.0000    36.0000 </r>
       <r>   -17.0442     0.0000    36.0000 </r>
       <r>   -16.9435     0.3993    36.0402 </r>
       <r>   -16.8428    17.5800    39.5713 </r>
       <r>   -16.7420    14.5319    41.9974 </r>
       <r>   -16.6413     0.0000    42.0000 </r>
       <r>   -16.5405     0.0000    42.0000 </r>
       <r>   -16.4398     0.0000    42.0000 </r>
       <r>   -16.3390     0.0000    42.0000 </r>
       <r>   -16.2383     0.0000    42.0000 </r>
       <r>   -16.1376     0.0000    42.0000 </r>
       <r>   -16.0368     0.0000    42.0000 </r>
       <r>   -15.9361    15.2681    43.5382 </r>
       <r>   -15.8353    33.4101    47.2659 </r>
       <r>   -15.7346     0.0000    48.0000 </r>
       <r>   -15.6338     0.0000    48.0000 </r>
       <r>   -15.5331     0.0000    48.0000 </r>
       <r>   -15.4324     0.0000    48.0000 </r>
       <r>   -15.3316     0.0000    48.0000 </r>
       <r>   -15.2309     0.0000    48.0000 </r>
       <r>   -15.1301    10.1403    49.0216 </r>
       <r>   -15.0294    20.1786    51.2996 </r>
       <r>   -14.9286    14.6065    53.9049 </r>
       <r>   -14.8279     0.0000    54.0000 </r>
       <r>   -14.7272     0.0000    54.0000 </r>
       <r>   -14.6264     0.0000    54.0000 </r>
       <r>   -14.5257     0.0000    54.0000 </r>
       <r>   -14.4249     5.2118    54.5251 </r>
       <r>   -14.3242     5.1580    55.2197 </r>
       <r>   -14.2234     4.5981    55.8299 </r>
       <r>   -14.1227     6.1342    56.8180 </r>
       <r>   -14.0220    12.1070    58.2197 </r>
       <r>   -13.9212     6.0337    58.9745 </r>
       <r>   -13.8205    11.6154    60.1702 </r>
       <r>   -13.7197     7.2167    61.1271 </r>
       <r>   -13.6190     5.9553    62.0000 </r>
       <r>   -13.5182     0.0000    62.0000 </r>
       <r>   -13.4175     0.0000    62.0000 </r>
       <r>   -13.3168     0.0000    62.0000 </r>
       <r>   -13.2160     0.0000    62.0000 </r>
       <r>   -13.1153     0.0000    62.0000 </r>
       <r>   -13.0145     5.5096    62.5551 </r>
       <r>   -12.9138     3.8115    63.0174 </r>
       <r>   -12.8130     6.6214    64.0004 </r>
       <r>   -12.7123     9.0926    65.0161 </r>
       <r>   -12.6116     8.8666    66.0266 </r>
       <r>   -12.5108    13.6865    67.6788 </r>
       <r>   -12.4101    11.2458    68.9996 </r>
       <r>   -12.3093    10.5426    70.1621 </r>
       <r>   -12.2086     9.9245    72.0000 </r>
       <r>   -12.1078     0.0000    72.0000 </r>
       <r>   -12.0071     0.0000    72.0000 </r>
       <r>   -11.9063     0.0000    72.0000 </r>
       <r>   -11.8056     7.8771    72.7936 </r>
       <r>   -11.7049    37.3750    77.9987 </r>
       <r>   -11.6041     0.0000    78.0000 </r>
       <r>   -11.5034     0.0000    78.0000 </r>
       <r>   -11.4026     0.0000    78.0000 </r>
       <r>   -11.3019     5.2416    78.5280 </r>
       <r>   -11.2011    34.6343    82.4226 </r>
       <r>   -11.1004     2.8697    82.7891 </r>
       <r>   -10.9997    13.2699    85.1038 </r>
       <r>   -10.8989     4.9629    86.0000 </r>
       <r>   -10.7982     0.0000    86.0000 </r>
       <r>   -10.6974    20.7508    88.0905 </r>
       <r>   -10.5967    27.1769    91.7380 </r>
       <r>   -10.4959     8.6704    92.8735 </r>
       <r>   -10.3952    12.4378    94.3865 </r>
       <r>   -10.2945     7.2573    95.4645 </r>
       <r>   -10.1937    35.2838    99.1880 </r>
       <r>   -10.0930     4.3009   100.0000 </r>
       <r>    -9.9922    14.2466   101.4352 </r>
       <r>    -9.8915    26.4841   104.2348 </r>
       <r>    -9.7907     9.2626   106.0000 </r>
       <r>    -9.6900    23.9021   108.4080 </r>
       <r>    -9.5893     8.1927   110.3922 </r>
       <r>    -9.4885    10.5601   112.3306 </r>
       <r>    -9.3878     2.9505   112.7306 </r>
       <r>    -9.2870    10.2552   113.8332 </r>
       <r>    -9.1863     0.0126   114.0013 </r>
       <r>    -9.0855    40.7263   118.3363 </r>
       <r>    -8.9848     4.8789   119.0582 </r>
       <r>    -8.8841     4.9626   120.0000 </r>
       <r>    -8.7833     0.0095   120.0010 </r>
       <r>    -8.6826     8.7173   121.0449 </r>
       <r>    -8.5818     2.0324   121.3381 </r>
       <r>    -8.4811     2.2612   121.5945 </r>
       <r>    -8.3803     3.5993   121.9960 </r>
       <r>    -8.2796     5.5356   122.5577 </r>
       <r>    -8.1789    25.8068   126.0000 </r>
       <r>    -8.0781     0.0000   126.0000 </r>
       <r>    -7.9774    24.2341   128.4414 </r>
       <r>    -7.8766    29.7356   132.4627 </r>
       <r>    -7.7759     2.5987   132.7618 </r>
       <r>    -7.6751     5.8971   133.3941 </r>
       <r>    -7.5744    10.7003   134.7113 </r>
       <r>    -7.4737    14.7625   137.4872 </r>
       <r>    -7.3729    39.7050   142.0000 </r>
       <r>    -7.2722     0.0000   142.0000 </r>
       <r>    -7.1714     0.0000   142.0000 </r>
       <r>    -7.0707     0.0003   142.0000 </r>
       <r>    -6.9699    27.5476   144.7753 </r>
       <r>    -6.8692     7.4693   145.6192 </r>
       <r>    -6.7685     4.4243   146.2124 </r>
       <r>    -6.6677     6.4386   146.9487 </r>
       <r>    -6.5670     2.0983   147.2447 </r>
       <r>    -6.4662     3.5182   147.6544 </r>
       <r>    -6.3655    17.2038   150.0667 </r>
       <r>    -6.2647    14.0634   153.4168 </r>
       <r>    -6.1640     2.0822   153.7098 </r>
       <r>    -6.0633    12.1139   154.9871 </r>
       <r>    -5.9625     3.8529   156.5215 </r>
       <r>    -5.8618    26.8137   159.4680 </r>
       <r>    -5.7610    24.1467   162.1326 </r>
       <r>    -5.6603     1.8772   162.3891 </r>
       <r>    -5.5595     1.8637   162.6211 </r>
       <r>    -5.4588     1.9384   162.8619 </r>
       <r>    -5.3581     6.0727   163.5451 </r>
       <r>    -5.2573     2.9777   164.0000 </r>
       <r>    -5.1566    19.7494   165.9896 </r>
       <r>    -5.0558    39.6959   169.9992 </r>
       <r>    -4.9551    11.8714   171.1961 </r>
       <r>    -4.8543    26.7842   173.9984 </r>
       <r>    -4.7536     0.0000   174.0000 </r>
       <r>    -4.6529     0.0000   174.0000 </r>
       <r>    -4.5521     0.0000   174.0000 </r>
       <r>    -4.4514     0.0000   174.0000 </r>
       <r>    -4.3506     0.0000   174.0000 </r>
       <r>    -4.2499     0.0000   174.0000 </r>
       <r>    -4.1491     0.0000   174.0000 </r>
       <r>    -4.0484     0.0000   174.0000 </r>
       <r>    -3.9476     0.0000   174.0000 </r>
       <r>    -3.8469     0.0000   174.0000 </r>
       <r>    -3.7462     0.0000   174.0000 </r>
       <r>    -3.6454     0.0000   174.0000 </r>
       <r>    -3.5447     0.0000   174.0000 </r>
       <r>    -3.4439     0.0000   174.0000 </r>
       <r>    -3.3432     0.0000   174.0000 </r>
       <r>    -3.2424     0.0000   174.0000 </r>
       <r>    -3.1417     0.0000   174.0000 </r>
       <r>    -3.0410     0.0000   174.0000 </r>
       <r>    -2.9402     0.0000   174.0000 </r>
       <r>    -2.8395     0.0000   174.0000 </r>
       <r>    -2.7387     0.0000   174.0000 </r>
       <r>    -2.6380     0.0000   174.0000 </r>
       <r>    -2.5372     0.0000   174.0000 </r>
       <r>    -2.4365     0.0000   174.0000 </r>
       <r>    -2.3358     0.0000   174.0000 </r>
       <r>    -2.2350    26.8345   176.7034 </r>
       <r>    -2.1343    11.4933   177.9912 </r>
       <r>    -2.0335     3.0496   178.3072 </r>
       <r>    -1.9328     3.4148   179.2440 </r>
       <r>    -1.8320     6.5250   179.9907 </r>
       <r>    -1.7313     0.0000   180.0000 </r>
       <r>    -1.6306    16.4375   181.6560 </r>
       <r>    -1.5298    28.3297   185.1543 </r>
       <r>    -1.4291     5.6096   185.9985 </r>
       <r>    -1.3283     0.0000   186.0000 </r>
       <r>    -1.2276     0.0000   186.0000 </r>
       <r>    -1.1268     0.0000   186.0000 </r>
       <r>    -1.0261     0.0000   186.0000 </r>
       <r>    -0.9254     0.0000   186.0000 </r>
       <r>    -0.8246     0.0000   186.0000 </r>
       <r>    -0.7239    12.9002   187.2996 </r>
       <r>    -0.6231     6.7476   188.5465 </r>
       <r>    -0.5224     1.5973   188.7276 </r>
       <r>    -0.4216     1.6087   188.9287 </r>
       <r>    -0.3209     5.4724   189.5513 </r>
       <r>    -0.2202     2.3157   190.0000 </r>
       <r>    -0.1194     1.0038   190.1011 </r>
       <r>    -0.0187     4.4429   190.8476 </r>
       <r>     0.0821    11.5830   192.1002 </r>
       <r>     0.1828    11.7602   193.6515 </r>
       <r>     0.2836    16.3231   195.7112 </r>
       <r>     0.3843    17.1542   197.5949 </r>
       <r>     0.4850    17.1832   199.8645 </r>
       <r>     0.5858    15.9367   201.8389 </r>
       <r>     0.6865     8.2896   203.4018 </r>
       <r>     0.7873    17.9201   205.6725 </r>
       <r>     0.8880    15.5356   207.5319 </r>
       <r>     0.9888    17.6648   209.4130 </r>
       <r>     1.0895    25.5570   212.4747 </r>
       <r>     1.1902    19.5736   214.7720 </r>
       <r>     1.2910    19.8448   217.5993 </r>
       <r>     1.3917    21.8302   220.2326 </r>
       <r>     1.4925    23.7612   222.7271 </r>
       <r>     1.5932    11.4557   224.3208 </r>
       <r>     1.6940    33.9733   228.4229 </r>
       <r>     1.7947    31.7188   231.9622 </r>
       <r>     1.8954    32.9075   235.9821 </r>
       <r>     1.9962    29.1623   239.8381 </r>
       <r>     2.0969    32.1272   244.0701 </r>
       <r>     2.1977    29.0815   247.5302 </r>
       <r>     2.2984    34.3353   251.5925 </r>
       <r>     2.3992    30.0188   255.3909 </r>
       <r>     2.4999     2.3155   256.0000 </r>
       <r>     2.6006     0.0000   256.0000 </r>
       <r>     2.7014     0.0000   256.0000 </r>
       <r>     2.8021     0.0000   256.0000 </r>
       <r>     2.9029     0.0000   256.0000 </r>
       <r>     3.0036     0.0000   256.0000 </r>
       <r>     3.1044     0.0000   256.0000 </r>
       <r>     3.2051     0.0000   256.0000 </r>
       <r>     3.3059     0.0000   256.0000 </r>
       <r>     3.4066     0.0000   256.0000 </r>
       <r>     3.5073     0.0000   256.0000 </r>
       <r>     3.6081     0.0000   256.0000 </r>
       <r>     3.7088     0.0000   256.0000 </r>
       <r>     3.8096     0.0000   256.0000 </r>
      </set>
     </set>
    </array>
   </total>
  </dos>
 </calculation>
 <structure name="finalpos" >
  <crystal>
   <varray name="basis" >
    <v>      14.73265558       0.00202167       0.00000000 </v>
    <v>      -7.36457061      12.76495901       0.00000000 </v>
    <v>       0.00000000       0.00000000      20.00000000 </v>
   </varray>
   <i name="volume">   3761.53266576 </i>
   <varray name="rec_basis" >
    <v>       0.06787105       0.03915729       0.00000000 </v>
    <v>      -0.00001075       0.07833326       0.00000000 </v>
    <v>       0.00000000       0.00000000       0.05000000 </v>
   </varray>
  </crystal>
  <varray name="positions" >
   <v>       0.60203810       0.22292939       0.51847128 </v>
   <v>       0.55805862       0.28779833       0.51842252 </v>
   <v>       0.62115453       0.39746920       0.51865328 </v>
   <v>       0.72997055       0.44137890       0.51859090 </v>
   <v>       0.77654907       0.37823163       0.51859412 </v>
   <v>       0.71174840       0.26944470       0.51838504 </v>
   <v>       0.38612905       0.77664382       0.51409417 </v>
   <v>       0.44259743       0.72333717       0.51433390 </v>
   <v>       0.39058515       0.61344046       0.51429061 </v>
   <v>       0.28085387       0.55704558       0.51448286 </v>
   <v>       0.22293539       0.60907478       0.51420137 </v>
   <v>       0.27619787       0.71878537       0.51420625 </v>
   <v>       0.89286833       0.43204624       0.51759376 </v>
   <v>       0.10723043       0.54741338       0.51478045 </v>
   <v>       0.95669963       0.39063919       0.54031980 </v>
   <v>       0.91798949       0.28299248       0.57089788 </v>
   <v>       0.56736034       0.46002787       0.51775125 </v>
   <v>       0.45216123       0.55928288       0.51493066 </v>
   <v>       0.60898318       0.56534004       0.54026704 </v>
   <v>       0.71680951       0.63432502       0.57057332 </v>
   <v>       0.53946330       0.10664832       0.51741809 </v>
   <v>       0.44021824       0.89232151       0.51464324 </v>
   <v>       0.43414407       0.04304176       0.53999039 </v>
   <v>       0.36513177       0.08193313       0.57026940 </v>
   <v>       0.04377074       0.58697125       0.49162140 </v>
   <v>       0.41235064       0.45616669       0.49198583 </v>
   <v>       0.54324623       0.95555716       0.49150156 </v>
   <v>       0.78225649       0.52541296       0.51756334 </v>
   <v>       0.74358047       0.21718232       0.51715184 </v>
   <v>       0.47399439       0.25605574       0.51722661 </v>
   <v>       0.23780627       0.47176864       0.51659934 </v>
   <v>       0.23392219       0.76185712       0.51604590 </v>
   <v>       0.52791712       0.76555481       0.51630121 </v>
   <v>       0.98842942       0.27933549       0.58500728 </v>
   <v>       0.87448002       0.22043867       0.53416471 </v>
   <v>       0.88559971       0.31366527       0.66040523 </v>
   <v>       0.72063888       0.70858211       0.58437598 </v>
   <v>       0.77915037       0.65286190       0.53375608 </v>
   <v>       0.68628959       0.57183835       0.66022876 </v>
   <v>       0.29083905       0.01157136       0.58406111 </v>
   <v>       0.34660672       0.12574818       0.53344778 </v>
   <v>       0.42707212       0.11359762       0.66007937 </v>
   <v>       0.07777980       0.66553522       0.47023229 </v>
   <v>       0.33366092       0.41167509       0.47074531 </v>
   <v>       0.58771661       0.92140964       0.47010964 </v>
   <v>       0.84868050       0.26017426       0.62654216 </v>
   <v>       0.73980345       0.58827092       0.62638615 </v>
   <v>       0.41118585       0.15090275       0.62610248 </v>
   <v>       0.06144787       0.44885018       0.53835360 </v>
   <v>       0.55083461       0.61198978       0.53835101 </v>
   <v>       0.38751475       0.93830869       0.53812147 </v>
   <v>       0.93986015       0.53076043       0.49324830 </v>
   <v>       0.46846847       0.40834590       0.49365516 </v>
   <v>       0.59106906       0.05944338       0.49313221 </v>
  </varray>
 </structure>
</modeling>
