<?xml version="1.0" encoding="ISO-8859-1"?>
<modeling>
 <generator>
  <i name="program" type="string">vasp </i>
  <i name="version" type="string">5.4.4.18Apr17-6-g9f103f2a35  </i>
  <i name="subversion" type="string">(build Jun 07 2020 16:50:00) complex            parallel </i>
  <i name="platform" type="string">LinuxIFC </i>
  <i name="date" type="string">2023 02 19 </i>
  <i name="time" type="string">14:58:37 </i>
 </generator>
 <incar>
  <i type="string" name="SYSTEM">Simulation for cell shape cell volume r</i>
  <i type="int" name="ISTART">     1</i>
  <i type="string" name="PREC">high</i>
  <i type="string" name="ALGO">48</i>
  <i type="int" name="ICHARG">    11</i>
  <i type="int" name="NELM">   200</i>
  <i type="int" name="IBRION">    -1</i>
  <i name="EDIFF">      0.00001000</i>
  <i name="EDIFFG">     -0.01000000</i>
  <i type="int" name="NSW">     0</i>
  <i type="int" name="ISIF">     2</i>
  <i name="ENCUT">    500.00000000</i>
  <i name="POTIM">      0.30000000</i>
  <i type="string" name="LREAL">A</i>
  <i type="int" name="ISMEAR">     0</i>
  <i name="SIGMA">      0.01000000</i>
  <i type="int" name="NWRITE">     0</i>
  <i type="logical" name="LWAVE"> F  </i>
  <i type="logical" name="LCHARG"> F  </i>
  <v type="int" name="KPOINT_BSE">    -1     0     0     0</v>
  <i type="int" name="NELM">   200</i>
  <i type="string" name="GGA">PE</i>
 </incar>
 <structure name="primitive_cell" >
  <crystal>
   <varray name="basis" >
    <v>      23.13571384       0.00041126       0.00000000 </v>
    <v>     -11.56749410      20.03516058       0.00000000 </v>
    <v>       0.00000000       0.00000000      20.00000000 </v>
   </varray>
   <i name="volume">   9270.64998212 </i>
   <varray name="rec_basis" >
    <v>       0.04322277       0.02495509       0.00000000 </v>
    <v>      -0.00000089       0.04991174       0.00000000 </v>
    <v>       0.00000000       0.00000000       0.05000000 </v>
   </varray>
  </crystal>
  <varray name="positions" >
   <v>      -0.36972192       0.26517984      -0.48563080 </v>
   <v>      -0.32111209       0.28597822      -0.48195533 </v>
   <v>      -0.40002377       0.19700449      -0.48938930 </v>
   <v>      -0.38653204       0.35253658      -0.47935764 </v>
   <v>      -0.47029044       0.16127105      -0.49295261 </v>
   <v>      -0.36417123       0.16256773      -0.49058319 </v>
   <v>       0.49798307       0.20355500      -0.49033067 </v>
   <v>      -0.29016467       0.20489732      -0.48773559 </v>
   <v>       0.49736969       0.23375344      -0.42805239 </v>
   <v>      -0.35865354       0.40117646      -0.48263838 </v>
   <v>      -0.23395782       0.39063759      -0.48335839 </v>
   <v>      -0.26435674       0.23423661      -0.42846412 </v>
   <v>      -0.25471288       0.41847560      -0.47944335 </v>
   <v>       0.48560945       0.22588447       0.45331098 </v>
   <v>      -0.49482613       0.29506144      -0.42800214 </v>
   <v>      -0.25098824       0.22621854       0.45417529 </v>
   <v>      -0.49938876       0.16432915      -0.36700704 </v>
   <v>       0.49208845       0.20323798      -0.36808245 </v>
   <v>       0.49635946       0.09184234      -0.49639201 </v>
   <v>      -0.39916505       0.09310571      -0.49421467 </v>
   <v>      -0.20317996       0.28797522      -0.42789154 </v>
   <v>      -0.49870285       0.32137116      -0.48679698 </v>
   <v>       0.48261873       0.28245866       0.45490470 </v>
   <v>      -0.26811210       0.19939482       0.40688412 </v>
   <v>      -0.19456772       0.28593795       0.45337201 </v>
   <v>      -0.17265539       0.31975490      -0.48973858 </v>
   <v>      -0.49552305       0.23241556      -0.32675241 </v>
   <v>      -0.39657193       0.43138259      -0.48697738 </v>
   <v>      -0.46940309       0.05569978      -0.49647135 </v>
   <v>      -0.16580275       0.42843116      -0.48739473 </v>
   <v>       0.44206558       0.06610720      -0.49884138 </v>
   <v>      -0.36975685       0.06820398      -0.49405786 </v>
   <v>      -0.46685639       0.39541492      -0.48906116 </v>
   <v>       0.47257466       0.29992752       0.40802335 </v>
   <v>      -0.17299058       0.31254111      -0.36764071 </v>
   <v>      -0.20244839       0.29535750      -0.32652767 </v>
   <v>      -0.13024347       0.39375983      -0.49155825 </v>
   <v>      -0.13443384       0.36014532      -0.36609634 </v>
   <v>      -0.36207099      -0.49835678      -0.49063002 </v>
   <v>      -0.20288048      -0.47287304      -0.42666194 </v>
   <v>      -0.13121678       0.49873369      -0.48858904 </v>
   <v>      -0.28804002      -0.46648417      -0.48826513 </v>
   <v>      -0.17327305      -0.46929858      -0.48574221 </v>
   <v>      -0.25650510      -0.46525210      -0.42626343 </v>
   <v>       0.49430552      -0.01839871      -0.49592850 </v>
   <v>      -0.25385175      -0.45436348       0.45504879 </v>
   <v>      -0.19415675      -0.45106807       0.45609547 </v>
   <v>       0.49867761       0.43038204      -0.49340432 </v>
   <v>      -0.28105110      -0.45947808      -0.36605254 </v>
   <v>      -0.06086026       0.42963809      -0.49566841 </v>
   <v>      -0.26385957      -0.47165764      -0.32487903 </v>
   <v>      -0.32855358      -0.46825253      -0.36450382 </v>
   <v>       0.39461924      -0.03092197      -0.49429657 </v>
   <v>      -0.41719273      -0.02883026      -0.49812907 </v>
   <v>      -0.16707410      -0.44119074       0.40895201 </v>
   <v>       0.44436997       0.40092636      -0.49389711 </v>
   <v>       0.42406884      -0.05578355      -0.49354003 </v>
   <v>      -0.47145379      -0.05453181      -0.49515771 </v>
   <v>      -0.39816589      -0.46507820      -0.49491266 </v>
   <v>      -0.06178488      -0.46698834      -0.49276767 </v>
   <v>      -0.03529232       0.40095837      -0.49888261 </v>
   <v>      -0.46853102      -0.49937976      -0.49562123 </v>
   <v>      -0.02457344       0.49999997      -0.49568607 </v>
   <v>      -0.36963898      -0.41080105      -0.49771839 </v>
   <v>      -0.03675107      -0.41266876      -0.49264024 </v>
   <v>       0.38909919      -0.12518846      -0.48880231 </v>
   <v>       0.49523882      -0.12390029      -0.49064325 </v>
   <v>       0.49363214      -0.46312509      -0.49580272 </v>
   <v>       0.39470555       0.44835868      -0.49879072 </v>
   <v>      -0.47352997      -0.12700659      -0.36493844 </v>
   <v>       0.42499695      -0.15957041      -0.48662299 </v>
   <v>       0.04950442      -0.46236184      -0.49594829 </v>
   <v>       0.06183647       0.45037925      -0.49372619 </v>
   <v>       0.42325416      -0.49736816      -0.49583406 </v>
   <v>       0.31507160      -0.16737664      -0.48644729 </v>
   <v>      -0.47297399      -0.16617163      -0.48859508 </v>
   <v>       0.08681037      -0.49530327      -0.49368910 </v>
   <v>      -0.41922999      -0.36348686      -0.49293988 </v>
   <v>       0.29378599      -0.16093904       0.40811764 </v>
   <v>       0.06005942      -0.36337921      -0.49851878 </v>
   <v>      -0.47353378      -0.39290759      -0.49313690 </v>
   <v>      -0.46473143      -0.16572802      -0.36654981 </v>
   <v>       0.08570765      -0.39199970      -0.49572049 </v>
   <v>       0.27628585      -0.18811570       0.45517846 </v>
   <v>       0.28867911      -0.19710730      -0.42748421 </v>
   <v>      -0.46121306      -0.18833343       0.45460090 </v>
   <v>      -0.47135581      -0.19643208      -0.42670515 </v>
   <v>       0.39471632      -0.22767896      -0.48188062 </v>
   <v>      -0.47667685      -0.19492283      -0.32525506 </v>
   <v>       0.38719124      -0.46402098      -0.49202225 </v>
   <v>       0.34608584      -0.24839319      -0.47855581 </v>
   <v>       0.15626392      -0.46093578      -0.48985599 </v>
   <v>       0.35366190      -0.49414676      -0.36618550 </v>
   <v>       0.49201780      -0.35791400      -0.48922725 </v>
   <v>       0.15509743      -0.35601976      -0.49191554 </v>
   <v>       0.22738899      -0.25063513      -0.42741357 </v>
   <v>       0.21980040      -0.24773765       0.45383727 </v>
   <v>      -0.45807480      -0.24481596       0.45545863 </v>
   <v>      -0.47924721      -0.25779476      -0.42718876 </v>
   <v>       0.42173121      -0.39376870      -0.48811520 </v>
   <v>       0.31315663      -0.49577498      -0.48987601 </v>
   <v>       0.19073630      -0.39063824      -0.48829328 </v>
   <v>       0.15800853      -0.32283380      -0.36610482 </v>
   <v>       0.19845459      -0.49278082      -0.48730186 </v>
   <v>       0.30618069       0.49715615      -0.36767434 </v>
   <v>       0.22583899      -0.25835490      -0.32605366 </v>
   <v>       0.19220765       0.47909197       0.40739739 </v>
   <v>       0.19738788      -0.28201012      -0.48956392 </v>
   <v>      -0.44844387      -0.26205103       0.40820905 </v>
   <v>      -0.47608104      -0.28390187      -0.48637830 </v>
   <v>       0.19664959      -0.27525593      -0.36737619 </v>
   <v>       0.41162426      -0.31486663      -0.48061228 </v>
   <v>       0.27898348       0.49219973       0.45344738 </v>
   <v>       0.28165739      -0.49695693      -0.42786127 </v>
   <v>       0.21931835       0.48899428       0.45452161 </v>
   <v>       0.22811563      -0.48920202      -0.42825170 </v>
   <v>       0.28909063      -0.49058626      -0.32647994 </v>
   <v>       0.38384512      -0.36349204      -0.48422680 </v>
   <v>       0.25887492      -0.35278802      -0.48427280 </v>
   <v>       0.27964650      -0.38063879      -0.48077917 </v>
  </varray>
 </structure>
 <varray name="primitive_index" >
  <v type="int" >        1 </v>
  <v type="int" >       67 </v>
  <v type="int" >       15 </v>
  <v type="int" >       73 </v>
  <v type="int" >        7 </v>
  <v type="int" >       14 </v>
  <v type="int" >        9 </v>
  <v type="int" >       11 </v>
  <v type="int" >       10 </v>
  <v type="int" >        2 </v>
  <v type="int" >        3 </v>
  <v type="int" >      104 </v>
  <v type="int" >       75 </v>
  <v type="int" >      105 </v>
  <v type="int" >      106 </v>
  <v type="int" >       16 </v>
  <v type="int" >       69 </v>
  <v type="int" >      103 </v>
  <v type="int" >        8 </v>
  <v type="int" >       13 </v>
  <v type="int" >       21 </v>
  <v type="int" >       19 </v>
  <v type="int" >       26 </v>
  <v type="int" >       72 </v>
  <v type="int" >      108 </v>
  <v type="int" >       20 </v>
  <v type="int" >       70 </v>
  <v type="int" >       24 </v>
  <v type="int" >       12 </v>
  <v type="int" >       25 </v>
  <v type="int" >       68 </v>
  <v type="int" >       71 </v>
  <v type="int" >       23 </v>
  <v type="int" >       81 </v>
  <v type="int" >      107 </v>
  <v type="int" >       78 </v>
  <v type="int" >       17 </v>
  <v type="int" >       77 </v>
  <v type="int" >       27 </v>
  <v type="int" >      109 </v>
  <v type="int" >       41 </v>
  <v type="int" >       31 </v>
  <v type="int" >       32 </v>
  <v type="int" >       33 </v>
  <v type="int" >       57 </v>
  <v type="int" >      113 </v>
  <v type="int" >       45 </v>
  <v type="int" >       22 </v>
  <v type="int" >      110 </v>
  <v type="int" >       18 </v>
  <v type="int" >       84 </v>
  <v type="int" >       83 </v>
  <v type="int" >       99 </v>
  <v type="int" >       91 </v>
  <v type="int" >       88 </v>
  <v type="int" >       79 </v>
  <v type="int" >       60 </v>
  <v type="int" >       47 </v>
  <v type="int" >       28 </v>
  <v type="int" >       40 </v>
  <v type="int" >       76 </v>
  <v type="int" >       37 </v>
  <v type="int" >       39 </v>
  <v type="int" >       82 </v>
  <v type="int" >       87 </v>
  <v type="int" >       59 </v>
  <v type="int" >       48 </v>
  <v type="int" >       38 </v>
  <v type="int" >       74 </v>
  <v type="int" >       95 </v>
  <v type="int" >       58 </v>
  <v type="int" >       42 </v>
  <v type="int" >       80 </v>
  <v type="int" >       29 </v>
  <v type="int" >       55 </v>
  <v type="int" >       51 </v>
  <v type="int" >       44 </v>
  <v type="int" >      100 </v>
  <v type="int" >      102 </v>
  <v type="int" >       94 </v>
  <v type="int" >       63 </v>
  <v type="int" >      116 </v>
  <v type="int" >       49 </v>
  <v type="int" >       66 </v>
  <v type="int" >      117 </v>
  <v type="int" >      119 </v>
  <v type="int" >       53 </v>
  <v type="int" >        4 </v>
  <v type="int" >       96 </v>
  <v type="int" >       30 </v>
  <v type="int" >       90 </v>
  <v type="int" >       43 </v>
  <v type="int" >       85 </v>
  <v type="int" >       62 </v>
  <v type="int" >       50 </v>
  <v type="int" >       56 </v>
  <v type="int" >      120 </v>
  <v type="int" >       65 </v>
  <v type="int" >      115 </v>
  <v type="int" >       61 </v>
  <v type="int" >       34 </v>
  <v type="int" >       64 </v>
  <v type="int" >       97 </v>
  <v type="int" >       35 </v>
  <v type="int" >      112 </v>
  <v type="int" >       98 </v>
  <v type="int" >       89 </v>
  <v type="int" >       54 </v>
  <v type="int" >      101 </v>
  <v type="int" >       52 </v>
  <v type="int" >      118 </v>
  <v type="int" >       92 </v>
  <v type="int" >      114 </v>
  <v type="int" >       36 </v>
  <v type="int" >       46 </v>
  <v type="int" >      111 </v>
  <v type="int" >       86 </v>
  <v type="int" >        5 </v>
  <v type="int" >        6 </v>
  <v type="int" >       93 </v>
 </varray>
 <kpoints>
  <generation param="listgenerated">
   <i name="divisions" type="int">      20 </i>
   <v>       0.00000000       0.00000000       0.00000000 </v>
   <v>       0.50000000       0.00000000       0.00000000 </v>
   <v>       0.33333333       0.33333333       0.00000000 </v>
   <v>       0.00000000       0.00000000       0.00000000 </v>
  </generation>
  <varray name="kpointlist" >
   <v>       0.00000000       0.00000000       0.00000000 </v>
   <v>       0.02631579       0.00000000       0.00000000 </v>
   <v>       0.05263158       0.00000000       0.00000000 </v>
   <v>       0.07894737       0.00000000       0.00000000 </v>
   <v>       0.10526316       0.00000000       0.00000000 </v>
   <v>       0.13157895       0.00000000       0.00000000 </v>
   <v>       0.15789474       0.00000000       0.00000000 </v>
   <v>       0.18421053       0.00000000       0.00000000 </v>
   <v>       0.21052632       0.00000000       0.00000000 </v>
   <v>       0.23684211       0.00000000       0.00000000 </v>
   <v>       0.26315789       0.00000000       0.00000000 </v>
   <v>       0.28947368       0.00000000       0.00000000 </v>
   <v>       0.31578947       0.00000000       0.00000000 </v>
   <v>       0.34210526       0.00000000       0.00000000 </v>
   <v>       0.36842105       0.00000000       0.00000000 </v>
   <v>       0.39473684       0.00000000       0.00000000 </v>
   <v>       0.42105263       0.00000000       0.00000000 </v>
   <v>       0.44736842       0.00000000       0.00000000 </v>
   <v>       0.47368421       0.00000000       0.00000000 </v>
   <v>       0.50000000       0.00000000       0.00000000 </v>
   <v>       0.50000000       0.00000000       0.00000000 </v>
   <v>       0.49122807       0.01754386       0.00000000 </v>
   <v>       0.48245614       0.03508772       0.00000000 </v>
   <v>       0.47368421       0.05263158       0.00000000 </v>
   <v>       0.46491228       0.07017544       0.00000000 </v>
   <v>       0.45614035       0.08771930       0.00000000 </v>
   <v>       0.44736842       0.10526316       0.00000000 </v>
   <v>       0.43859649       0.12280702       0.00000000 </v>
   <v>       0.42982456       0.14035088       0.00000000 </v>
   <v>       0.42105263       0.15789474       0.00000000 </v>
   <v>       0.41228070       0.17543860       0.00000000 </v>
   <v>       0.40350877       0.19298246       0.00000000 </v>
   <v>       0.39473684       0.21052632       0.00000000 </v>
   <v>       0.38596491       0.22807018       0.00000000 </v>
   <v>       0.37719298       0.24561404       0.00000000 </v>
   <v>       0.36842105       0.26315789       0.00000000 </v>
   <v>       0.35964912       0.28070175       0.00000000 </v>
   <v>       0.35087719       0.29824561       0.00000000 </v>
   <v>       0.34210526       0.31578947       0.00000000 </v>
   <v>       0.33333333       0.33333333       0.00000000 </v>
   <v>       0.33333333       0.33333333       0.00000000 </v>
   <v>       0.31578947       0.31578947       0.00000000 </v>
   <v>       0.29824561       0.29824561       0.00000000 </v>
   <v>       0.28070175       0.28070175       0.00000000 </v>
   <v>       0.26315789       0.26315789       0.00000000 </v>
   <v>       0.24561404       0.24561404       0.00000000 </v>
   <v>       0.22807018       0.22807018       0.00000000 </v>
   <v>       0.21052632       0.21052632       0.00000000 </v>
   <v>       0.19298246       0.19298246       0.00000000 </v>
   <v>       0.17543860       0.17543860       0.00000000 </v>
   <v>       0.15789474       0.15789474       0.00000000 </v>
   <v>       0.14035088       0.14035088       0.00000000 </v>
   <v>       0.12280702       0.12280702       0.00000000 </v>
   <v>       0.10526316       0.10526316       0.00000000 </v>
   <v>       0.08771930       0.08771930       0.00000000 </v>
   <v>       0.07017544       0.07017544       0.00000000 </v>
   <v>       0.05263158       0.05263158       0.00000000 </v>
   <v>       0.03508772       0.03508772       0.00000000 </v>
   <v>       0.01754386       0.01754386       0.00000000 </v>
   <v>       0.00000000       0.00000000       0.00000000 </v>
  </varray>
  <varray name="weights" >
   <v>       0.01666667 </v>
   <v>       0.01666667 </v>
   <v>       0.01666667 </v>
   <v>       0.01666667 </v>
   <v>       0.01666667 </v>
   <v>       0.01666667 </v>
   <v>       0.01666667 </v>
   <v>       0.01666667 </v>
   <v>       0.01666667 </v>
   <v>       0.01666667 </v>
   <v>       0.01666667 </v>
   <v>       0.01666667 </v>
   <v>       0.01666667 </v>
   <v>       0.01666667 </v>
   <v>       0.01666667 </v>
   <v>       0.01666667 </v>
   <v>       0.01666667 </v>
   <v>       0.01666667 </v>
   <v>       0.01666667 </v>
   <v>       0.01666667 </v>
   <v>       0.01666667 </v>
   <v>       0.01666667 </v>
   <v>       0.01666667 </v>
   <v>       0.01666667 </v>
   <v>       0.01666667 </v>
   <v>       0.01666667 </v>
   <v>       0.01666667 </v>
   <v>       0.01666667 </v>
   <v>       0.01666667 </v>
   <v>       0.01666667 </v>
   <v>       0.01666667 </v>
   <v>       0.01666667 </v>
   <v>       0.01666667 </v>
   <v>       0.01666667 </v>
   <v>       0.01666667 </v>
   <v>       0.01666667 </v>
   <v>       0.01666667 </v>
   <v>       0.01666667 </v>
   <v>       0.01666667 </v>
   <v>       0.01666667 </v>
   <v>       0.01666667 </v>
   <v>       0.01666667 </v>
   <v>       0.01666667 </v>
   <v>       0.01666667 </v>
   <v>       0.01666667 </v>
   <v>       0.01666667 </v>
   <v>       0.01666667 </v>
   <v>       0.01666667 </v>
   <v>       0.01666667 </v>
   <v>       0.01666667 </v>
   <v>       0.01666667 </v>
   <v>       0.01666667 </v>
   <v>       0.01666667 </v>
   <v>       0.01666667 </v>
   <v>       0.01666667 </v>
   <v>       0.01666667 </v>
   <v>       0.01666667 </v>
   <v>       0.01666667 </v>
   <v>       0.01666667 </v>
   <v>       0.01666667 </v>
  </varray>
 </kpoints>
 <parameters>
  <separator name="general" >
   <i type="string" name="SYSTEM">Simulation for cell shape cell volume r</i>
   <i type="logical" name="LCOMPAT"> F  </i>
  </separator>
  <separator name="electronic" >
   <i type="string" name="PREC">high</i>
   <i name="ENMAX">    500.00000000</i>
   <i name="ENAUG">    644.87300000</i>
   <i name="EDIFF">      0.00001000</i>
   <i type="int" name="IALGO">    38</i>
   <i type="int" name="IWAVPR">    10</i>
   <i type="int" name="NBANDS">   272</i>
   <i name="NELECT">    402.00000000</i>
   <i type="int" name="TURBO">     0</i>
   <i type="int" name="IRESTART">     0</i>
   <i type="int" name="NREBOOT">     0</i>
   <i type="int" name="NMIN">     0</i>
   <i name="EREF">      0.00000000</i>
   <separator name="electronic smearing" >
    <i type="int" name="ISMEAR">     0</i>
    <i name="SIGMA">      0.01000000</i>
    <i name="KSPACING">      0.50000000</i>
    <i type="logical" name="KGAMMA"> T  </i>
   </separator>
   <separator name="electronic projectors" >
    <i type="logical" name="LREAL"> T  </i>
    <v name="ROPT">     -0.00040000     -0.00040000     -0.00040000     -0.00040000</v>
    <i type="int" name="LMAXPAW">  -100</i>
    <i type="int" name="LMAXMIX">     2</i>
    <i type="logical" name="NLSPLINE"> F  </i>
   </separator>
   <separator name="electronic startup" >
    <i type="int" name="ISTART">     1</i>
    <i type="int" name="ICHARG">    11</i>
    <i type="int" name="INIWAV">     1</i>
   </separator>
   <separator name="electronic spin" >
    <i type="int" name="ISPIN">     1</i>
    <i type="logical" name="LNONCOLLINEAR"> F  </i>
    <v name="MAGMOM">      1.00000000      1.00000000      1.00000000      1.00000000      1.00000000      1.00000000      1.00000000      1.00000000      1.00000000      1.00000000      1.00000000      1.00000000      1.00000000      1.00000000      1.00000000      1.00000000      1.00000000      1.00000000      1.00000000      1.00000000
      1.00000000      1.00000000      1.00000000      1.00000000      1.00000000      1.00000000      1.00000000      1.00000000      1.00000000      1.00000000      1.00000000      1.00000000      1.00000000      1.00000000      1.00000000      1.00000000      1.00000000      1.00000000      1.00000000      1.00000000
      1.00000000      1.00000000      1.00000000      1.00000000      1.00000000      1.00000000      1.00000000      1.00000000      1.00000000      1.00000000      1.00000000      1.00000000      1.00000000      1.00000000      1.00000000      1.00000000      1.00000000      1.00000000      1.00000000      1.00000000
      1.00000000      1.00000000      1.00000000      1.00000000      1.00000000      1.00000000      1.00000000      1.00000000      1.00000000      1.00000000      1.00000000      1.00000000      1.00000000      1.00000000      1.00000000      1.00000000      1.00000000      1.00000000      1.00000000      1.00000000
      1.00000000      1.00000000      1.00000000      1.00000000      1.00000000      1.00000000      1.00000000      1.00000000      1.00000000      1.00000000      1.00000000      1.00000000      1.00000000      1.00000000      1.00000000      1.00000000      1.00000000      1.00000000      1.00000000      1.00000000
      1.00000000      1.00000000      1.00000000      1.00000000      1.00000000      1.00000000      1.00000000      1.00000000      1.00000000      1.00000000      1.00000000      1.00000000      1.00000000      1.00000000      1.00000000      1.00000000      1.00000000      1.00000000      1.00000000      1.00000000
</v>
    <i name="NUPDOWN">     -1.00000000</i>
    <i type="logical" name="LSORBIT"> F  </i>
    <v name="SAXIS">      0.00000000      0.00000000      1.00000000</v>
    <i type="logical" name="LSPIRAL"> F  </i>
    <v name="QSPIRAL">      0.00000000      0.00000000      0.00000000</v>
    <i type="logical" name="LZEROZ"> F  </i>
   </separator>
   <separator name="electronic exchange-correlation" >
    <i type="logical" name="LASPH"> F  </i>
    <i type="logical" name="LMETAGGA"> F  </i>
   </separator>
   <separator name="electronic convergence" >
    <i type="int" name="NELM">   200</i>
    <i type="int" name="NELMDL">     0</i>
    <i type="int" name="NELMIN">     2</i>
    <i name="ENINI">    500.00000000</i>
    <separator name="electronic convergence detail" >
     <i type="logical" name="LDIAG"> T  </i>
     <i type="logical" name="LSUBROT"> F  </i>
     <i name="WEIMIN">      0.00000000</i>
     <i name="EBREAK">      0.00000001</i>
     <i name="DEPER">      0.30000000</i>
     <i type="int" name="NRMM">     4</i>
     <i name="TIME">      0.40000000</i>
    </separator>
   </separator>
   <separator name="electronic mixer" >
    <i name="AMIX">      0.40000000</i>
    <i name="BMIX">      1.00000000</i>
    <i name="AMIN">      0.10000000</i>
    <i name="AMIX_MAG">      1.60000000</i>
    <i name="BMIX_MAG">      1.00000000</i>
    <separator name="electronic mixer details" >
     <i type="int" name="IMIX">     4</i>
     <i type="logical" name="MIXFIRST"> F  </i>
     <i type="int" name="MAXMIX">   -45</i>
     <i name="WC">    100.00000000</i>
     <i type="int" name="INIMIX">     1</i>
     <i type="int" name="MIXPRE">     1</i>
     <i type="int" name="MREMOVE">     5</i>
    </separator>
   </separator>
   <separator name="electronic dipolcorrection" >
    <i type="logical" name="LDIPOL"> F  </i>
    <i type="logical" name="LMONO"> F  </i>
    <i type="int" name="IDIPOL">     0</i>
    <i name="EPSILON">      1.00000000</i>
    <v name="DIPOL">   -100.00000000   -100.00000000   -100.00000000</v>
    <i name="EFIELD">      0.00000000</i>
   </separator>
  </separator>
  <separator name="grids" >
   <i type="int" name="NGX">   180</i>
   <i type="int" name="NGY">   180</i>
   <i type="int" name="NGZ">   150</i>
   <i type="int" name="NGXF">   256</i>
   <i type="int" name="NGYF">   256</i>
   <i type="int" name="NGZF">   224</i>
   <i type="logical" name="ADDGRID"> F  </i>
  </separator>
  <separator name="ionic" >
   <i type="int" name="NSW">     0</i>
   <i type="int" name="IBRION">    -1</i>
   <i type="int" name="MDALGO">     0</i>
   <i type="int" name="ISIF">     2</i>
   <i name="PSTRESS">      0.00000000</i>
   <i name="EDIFFG">     -0.01000000</i>
   <i type="int" name="NFREE">     0</i>
   <i name="POTIM">      0.30000000</i>
   <i name="SMASS">     -3.00000000</i>
   <i name="SCALEE">      1.00000000</i>
  </separator>
  <separator name="ionic md" >
   <i name="TEBEG">      0.00010000</i>
   <i name="TEEND">      0.00010000</i>
   <i type="int" name="NBLOCK">     1</i>
   <i type="int" name="KBLOCK">     1</i>
   <i type="int" name="NPACO">   256</i>
   <i name="APACO">     16.00000000</i>
  </separator>
  <separator name="symmetry" >
   <i type="int" name="ISYM">     2</i>
   <i name="SYMPREC">      0.00001000</i>
  </separator>
  <separator name="dos" >
   <i type="int" name="LORBIT">     0</i>
   <v name="RWIGS">     -1.00000000     -1.00000000     -1.00000000     -1.00000000</v>
   <i type="int" name="NEDOS">   301</i>
   <i name="EMIN">     10.00000000</i>
   <i name="EMAX">    -10.00000000</i>
   <i name="EFERMI">      0.00000000</i>
  </separator>
  <separator name="writing" >
   <i type="int" name="NWRITE">     0</i>
   <i type="logical" name="LWAVE"> F  </i>
   <i type="logical" name="LDOWNSAMPLE"> F  </i>
   <i type="logical" name="LCHARG"> F  </i>
   <i type="logical" name="LPARD"> F  </i>
   <i type="logical" name="LVTOT"> F  </i>
   <i type="logical" name="LVHAR"> F  </i>
   <i type="logical" name="LELF"> F  </i>
   <i type="logical" name="LOPTICS"> F  </i>
   <v name="STM">      0.00000000      0.00000000      0.00000000      0.00000000      0.00000000      0.00000000      0.00000000</v>
  </separator>
  <separator name="performance" >
   <i type="int" name="NPAR">    16</i>
   <i type="int" name="NSIM">     4</i>
   <i type="int" name="NBLK">    -1</i>
   <i type="logical" name="LPLANE"> T  </i>
   <i type="logical" name="LSCALAPACK"> T  </i>
   <i type="logical" name="LSCAAWARE"> F  </i>
   <i type="logical" name="LSCALU"> F  </i>
   <i type="logical" name="LASYNC"> F  </i>
   <i type="logical" name="LORBITALREAL"> F  </i>
  </separator>
  <separator name="miscellaneous" >
   <i type="int" name="IDIOT">     3</i>
   <i type="int" name="ISPECIAL">     0</i>
   <i type="logical" name="LMUSIC"> F  </i>
   <v name="POMASS">     16.00000000     12.01100000      1.00000000     14.00100000</v>
   <v name="DARWINR">      0.00000000      0.00000000      0.00000000      0.00000000</v>
   <v name="DARWINV">      1.00000000      1.00000000      1.00000000      1.00000000</v>
   <i type="logical" name="LCORR"> T  </i>
  </separator>
  <i type="logical" name="GGA_COMPAT"> T  </i>
  <i type="logical" name="LBERRY"> F  </i>
  <i type="int" name="ICORELEVEL">     0</i>
  <i type="logical" name="LDAU"> F  </i>
  <i type="int" name="I_CONSTRAINED_M">     0</i>
  <separator name="electronic exchange-correlation" >
   <i type="string" name="GGA">PE</i>
   <i type="int" name="VOSKOWN">     0</i>
   <i type="logical" name="LHFCALC"> F  </i>
   <i type="string" name="PRECFOCK"></i>
   <i type="logical" name="LSYMGRAD"> F  </i>
   <i type="logical" name="LHFONE"> F  </i>
   <i type="logical" name="LRHFCALC"> F  </i>
   <i type="logical" name="LTHOMAS"> F  </i>
   <i type="logical" name="LMODELHF"> F  </i>
   <i name="ENCUT4O">     -1.00000000</i>
   <i type="int" name="EXXOEP">     0</i>
   <i type="int" name="FOURORBIT">     0</i>
   <i name="AEXX">      0.00000000</i>
   <i name="HFALPHA">      0.00000000</i>
   <i name="MCALPHA">      0.00000000</i>
   <i name="ALDAX">      1.00000000</i>
   <i name="AGGAX">      1.00000000</i>
   <i name="ALDAC">      1.00000000</i>
   <i name="AGGAC">      1.00000000</i>
   <i type="int" name="NKREDX">     1</i>
   <i type="int" name="NKREDY">     1</i>
   <i type="int" name="NKREDZ">     1</i>
   <i type="logical" name="SHIFTRED"> F  </i>
   <i type="logical" name="ODDONLY"> F  </i>
   <i type="logical" name="EVENONLY"> F  </i>
   <i type="int" name="LMAXFOCK">     0</i>
   <i type="int" name="NMAXFOCKAE">     0</i>
   <i type="logical" name="LFOCKAEDFT"> F  </i>
   <i name="HFSCREEN">      0.00000000</i>
   <i name="HFSCREENC">      0.00000000</i>
   <i type="int" name="NBANDSGWLOW">     0</i>
  </separator>
  <separator name="vdW DFT" >
   <i type="logical" name="LUSE_VDW"> F  </i>
   <i name="Zab_VDW">     -0.84910000</i>
   <i name="PARAM1">      0.12340000</i>
   <i name="PARAM2">      1.00000000</i>
   <i name="PARAM3">      0.00000000</i>
  </separator>
  <separator name="model GW" >
   <i type="int" name="MODEL_GW">     0</i>
   <i name="MODEL_EPS0">     46.35324991</i>
   <i name="MODEL_ALPHA">      1.00000000</i>
  </separator>
  <separator name="linear response parameters" >
   <i type="logical" name="LEPSILON"> F  </i>
   <i type="logical" name="LRPA"> F  </i>
   <i type="logical" name="LNABLA"> F  </i>
   <i type="logical" name="LVEL"> F  </i>
   <i type="int" name="KINTER">     0</i>
   <i name="CSHIFT">      0.10000000</i>
   <i name="OMEGAMAX">     -1.00000000</i>
   <i name="DEG_THRESHOLD">      0.00200000</i>
   <i name="RTIME">     -0.10000000</i>
   <i name="WPLASMAI">      0.00000000</i>
   <v name="DFIELD">      0.00000000      0.00000000      0.00000000</v>
   <v name="WPLASMA">      0.00000000      0.00000000      0.00000000      0.00000000      0.00000000      0.00000000      0.00000000      0.00000000      0.00000000</v>
  </separator>
  <separator name="orbital magnetization" >
   <i type="logical" name="NUCIND"> F  </i>
   <v name="MAGPOS">      0.00000000      0.00000000      0.00000000</v>
   <i type="logical" name="LNICSALL"> T  </i>
   <i type="logical" name="ORBITALMAG"> F  </i>
   <i type="logical" name="LMAGBLOCH"> F  </i>
   <i type="logical" name="LCHIMAG"> F  </i>
   <i type="logical" name="LGAUGE"> T  </i>
   <i type="int" name="MAGATOM">     0</i>
   <v name="MAGDIPOL">      0.00000000      0.00000000      0.00000000</v>
   <v name="AVECCONST">      0.00000000      0.00000000      0.00000000</v>
  </separator>
  <separator name="response functions" >
   <i type="logical" name="LADDER"> F  </i>
   <i type="logical" name="LRPAFORCE"> F  </i>
   <i type="logical" name="LFXC"> F  </i>
   <i type="logical" name="LHARTREE"> T  </i>
   <i type="int" name="IBSE">     0</i>
   <v type="int" name="KPOINT">    -1     0     0     0</v>
   <i type="logical" name="LTCTE"> F  </i>
   <i type="logical" name="LTETE"> F  </i>
   <i type="logical" name="LTRIPLET"> F  </i>
   <i type="logical" name="LFXCEPS"> F  </i>
   <i type="logical" name="LFXHEG"> F  </i>
   <i type="int" name="NATURALO">     2</i>
   <i type="logical" name="L2ORDER"> F  </i>
   <i type="logical" name="LMP2LT"> F  </i>
   <i type="logical" name="LUSEW"> F  </i>
   <i name="ENCUTGW">     -2.00000000</i>
   <i name="ENCUTGWSOFT">     -2.00000000</i>
   <i name="ENCUTLF">     -1.00000000</i>
   <i type="int" name="LMAXMP2">    -1</i>
   <i name="SCISSOR">      0.00000000</i>
   <i type="int" name="NOMEGA">     0</i>
   <i type="int" name="NOMEGAR">     0</i>
   <i type="int" name="NBANDSGW">    -1</i>
   <i type="int" name="NBANDSO">    -1</i>
   <i type="int" name="NBANDSV">    -1</i>
   <i type="int" name="NELM">   200</i>
   <i type="int" name="NELMHF">     1</i>
   <i type="int" name="DIM">     3</i>
   <i type="int" name="ANTIRES">     0</i>
   <i name="OMEGAMAX">    -30.00000000</i>
   <i name="OMEGAMIN">    -30.00000000</i>
   <i name="OMEGATL">   -200.00000000</i>
   <i type="int" name="OMEGAGRID">   140</i>
   <i name="CSHIFT">     -0.10000000</i>
   <i type="logical" name="SELFENERGY"> F  </i>
   <i type="logical" name="LSPECTRAL"> F  </i>
   <i type="logical" name="LSPECTRALGW"> F  </i>
   <i type="logical" name="LSINGLES"> F  </i>
   <i type="logical" name="LFERMIGW"> F  </i>
   <i type="logical" name="ODDONLYGW"> F  </i>
   <i type="logical" name="EVENONLYGW"> F  </i>
   <i type="int" name="NKREDLFX">     1</i>
   <i type="int" name="NKREDLFY">     1</i>
   <i type="int" name="NKREDLFZ">     1</i>
   <i type="int" name="MAXMEM">  2800</i>
   <i type="int" name="TELESCOPE">     0</i>
   <i type="int" name="TAUPAR">     1</i>
   <i type="int" name="OMEGAPAR">    -1</i>
   <i name="LAMBDA">      1.00000000</i>
  </separator>
  <separator name="External order field" >
   <i name="OFIELD_KAPPA">      0.00000000</i>
   <v name="OFIELD_K">      0.00000000      0.00000000      0.00000000</v>
   <i name="OFIELD_Q6_NEAR">      0.00000000</i>
   <i name="OFIELD_Q6_FAR">      0.00000000</i>
   <i name="OFIELD_A">      0.00000000</i>
  </separator>
  <separator name="solvation model" >
   <i type="logical" name="LSOL"> F  </i>
  </separator>
 </parameters>
 <atominfo>
  <atoms>     120 </atoms>
  <types>       4 </types>
  <array name="atoms" >
   <dimension dim="1">ion</dimension>
   <field type="string">element</field>
   <field type="int">atomtype</field>
   <set>
    <rc><c>O </c><c>   1</c></rc>
    <rc><c>O </c><c>   1</c></rc>
    <rc><c>O </c><c>   1</c></rc>
    <rc><c>O </c><c>   1</c></rc>
    <rc><c>O </c><c>   1</c></rc>
    <rc><c>O </c><c>   1</c></rc>
    <rc><c>C </c><c>   2</c></rc>
    <rc><c>C </c><c>   2</c></rc>
    <rc><c>C </c><c>   2</c></rc>
    <rc><c>C </c><c>   2</c></rc>
    <rc><c>C </c><c>   2</c></rc>
    <rc><c>C </c><c>   2</c></rc>
    <rc><c>C </c><c>   2</c></rc>
    <rc><c>C </c><c>   2</c></rc>
    <rc><c>C </c><c>   2</c></rc>
    <rc><c>C </c><c>   2</c></rc>
    <rc><c>C </c><c>   2</c></rc>
    <rc><c>C </c><c>   2</c></rc>
    <rc><c>C </c><c>   2</c></rc>
    <rc><c>C </c><c>   2</c></rc>
    <rc><c>C </c><c>   2</c></rc>
    <rc><c>C </c><c>   2</c></rc>
    <rc><c>C </c><c>   2</c></rc>
    <rc><c>C </c><c>   2</c></rc>
    <rc><c>C </c><c>   2</c></rc>
    <rc><c>C </c><c>   2</c></rc>
    <rc><c>C </c><c>   2</c></rc>
    <rc><c>C </c><c>   2</c></rc>
    <rc><c>C </c><c>   2</c></rc>
    <rc><c>C </c><c>   2</c></rc>
    <rc><c>C </c><c>   2</c></rc>
    <rc><c>C </c><c>   2</c></rc>
    <rc><c>C </c><c>   2</c></rc>
    <rc><c>C </c><c>   2</c></rc>
    <rc><c>C </c><c>   2</c></rc>
    <rc><c>C </c><c>   2</c></rc>
    <rc><c>C </c><c>   2</c></rc>
    <rc><c>C </c><c>   2</c></rc>
    <rc><c>C </c><c>   2</c></rc>
    <rc><c>C </c><c>   2</c></rc>
    <rc><c>C </c><c>   2</c></rc>
    <rc><c>C </c><c>   2</c></rc>
    <rc><c>C </c><c>   2</c></rc>
    <rc><c>C </c><c>   2</c></rc>
    <rc><c>C </c><c>   2</c></rc>
    <rc><c>C </c><c>   2</c></rc>
    <rc><c>C </c><c>   2</c></rc>
    <rc><c>C </c><c>   2</c></rc>
    <rc><c>C </c><c>   2</c></rc>
    <rc><c>C </c><c>   2</c></rc>
    <rc><c>C </c><c>   2</c></rc>
    <rc><c>C </c><c>   2</c></rc>
    <rc><c>C </c><c>   2</c></rc>
    <rc><c>C </c><c>   2</c></rc>
    <rc><c>C </c><c>   2</c></rc>
    <rc><c>C </c><c>   2</c></rc>
    <rc><c>C </c><c>   2</c></rc>
    <rc><c>C </c><c>   2</c></rc>
    <rc><c>C </c><c>   2</c></rc>
    <rc><c>C </c><c>   2</c></rc>
    <rc><c>C </c><c>   2</c></rc>
    <rc><c>C </c><c>   2</c></rc>
    <rc><c>C </c><c>   2</c></rc>
    <rc><c>C </c><c>   2</c></rc>
    <rc><c>C </c><c>   2</c></rc>
    <rc><c>C </c><c>   2</c></rc>
    <rc><c>H </c><c>   3</c></rc>
    <rc><c>H </c><c>   3</c></rc>
    <rc><c>H </c><c>   3</c></rc>
    <rc><c>H </c><c>   3</c></rc>
    <rc><c>H </c><c>   3</c></rc>
    <rc><c>H </c><c>   3</c></rc>
    <rc><c>H </c><c>   3</c></rc>
    <rc><c>H </c><c>   3</c></rc>
    <rc><c>H </c><c>   3</c></rc>
    <rc><c>H </c><c>   3</c></rc>
    <rc><c>H </c><c>   3</c></rc>
    <rc><c>H </c><c>   3</c></rc>
    <rc><c>H </c><c>   3</c></rc>
    <rc><c>H </c><c>   3</c></rc>
    <rc><c>H </c><c>   3</c></rc>
    <rc><c>H </c><c>   3</c></rc>
    <rc><c>H </c><c>   3</c></rc>
    <rc><c>H </c><c>   3</c></rc>
    <rc><c>H </c><c>   3</c></rc>
    <rc><c>H </c><c>   3</c></rc>
    <rc><c>H </c><c>   3</c></rc>
    <rc><c>H </c><c>   3</c></rc>
    <rc><c>H </c><c>   3</c></rc>
    <rc><c>H </c><c>   3</c></rc>
    <rc><c>H </c><c>   3</c></rc>
    <rc><c>H </c><c>   3</c></rc>
    <rc><c>H </c><c>   3</c></rc>
    <rc><c>H </c><c>   3</c></rc>
    <rc><c>H </c><c>   3</c></rc>
    <rc><c>H </c><c>   3</c></rc>
    <rc><c>H </c><c>   3</c></rc>
    <rc><c>H </c><c>   3</c></rc>
    <rc><c>H </c><c>   3</c></rc>
    <rc><c>H </c><c>   3</c></rc>
    <rc><c>H </c><c>   3</c></rc>
    <rc><c>H </c><c>   3</c></rc>
    <rc><c>N </c><c>   4</c></rc>
    <rc><c>N </c><c>   4</c></rc>
    <rc><c>N </c><c>   4</c></rc>
    <rc><c>N </c><c>   4</c></rc>
    <rc><c>N </c><c>   4</c></rc>
    <rc><c>N </c><c>   4</c></rc>
    <rc><c>N </c><c>   4</c></rc>
    <rc><c>N </c><c>   4</c></rc>
    <rc><c>N </c><c>   4</c></rc>
    <rc><c>N </c><c>   4</c></rc>
    <rc><c>N </c><c>   4</c></rc>
    <rc><c>N </c><c>   4</c></rc>
    <rc><c>N </c><c>   4</c></rc>
    <rc><c>N </c><c>   4</c></rc>
    <rc><c>N </c><c>   4</c></rc>
    <rc><c>N </c><c>   4</c></rc>
    <rc><c>N </c><c>   4</c></rc>
    <rc><c>N </c><c>   4</c></rc>
   </set>
  </array>
  <array name="atomtypes" >
   <dimension dim="1">type</dimension>
   <field type="int">atomspertype</field>
   <field type="string">element</field>
   <field>mass</field>
   <field>valence</field>
   <field type="string">pseudopotential</field>
   <set>
    <rc><c>   6</c><c>O </c><c>     16.00000000</c><c>      6.00000000</c><c>  PAW_PBE O 08Apr2002                   </c></rc>
    <rc><c>  60</c><c>C </c><c>     12.01100000</c><c>      4.00000000</c><c>  PAW_PBE C 08Apr2002                   </c></rc>
    <rc><c>  36</c><c>H </c><c>      1.00000000</c><c>      1.00000000</c><c>  PAW_PBE H 15Jun2001                   </c></rc>
    <rc><c>  18</c><c>N </c><c>     14.00100000</c><c>      5.00000000</c><c>  PAW_PBE N 08Apr2002                   </c></rc>
   </set>
  </array>
 </atominfo>
 <structure name="initialpos" >
  <crystal>
   <varray name="basis" >
    <v>      23.13571384       0.00041126       0.00000000 </v>
    <v>     -11.56749410      20.03516058       0.00000000 </v>
    <v>       0.00000000       0.00000000      20.00000000 </v>
   </varray>
   <i name="volume">   9270.64998212 </i>
   <varray name="rec_basis" >
    <v>       0.04322277       0.02495509       0.00000000 </v>
    <v>      -0.00000089       0.04991174       0.00000000 </v>
    <v>       0.00000000       0.00000000       0.05000000 </v>
   </varray>
  </crystal>
  <varray name="positions" >
   <v>       0.63027808       0.26517984       0.51436920 </v>
   <v>       0.64134646       0.40117646       0.51736162 </v>
   <v>       0.76604218       0.39063759       0.51664161 </v>
   <v>       0.39471632       0.77232104       0.51811938 </v>
   <v>       0.38384512       0.63650796       0.51577320 </v>
   <v>       0.25887492       0.64721198       0.51572720 </v>
   <v>       0.52970956       0.16127105       0.50704739 </v>
   <v>       0.49635946       0.09184234       0.50360799 </v>
   <v>       0.49798307       0.20355500       0.50966933 </v>
   <v>       0.49736969       0.23375344       0.57194761 </v>
   <v>       0.70983533       0.20489732       0.51226441 </v>
   <v>       0.53059691       0.05569978       0.50352865 </v>
   <v>       0.60083495       0.09310571       0.50578533 </v>
   <v>       0.63582877       0.16256773       0.50941681 </v>
   <v>       0.59997623       0.19700449       0.51061070 </v>
   <v>       0.74901176       0.22621854       0.45417529 </v>
   <v>       0.86975653       0.39375983       0.50844175 </v>
   <v>       0.93913974       0.42963809       0.50433159 </v>
   <v>       0.50129715       0.32137116       0.51320302 </v>
   <v>       0.82734461       0.31975490       0.51026142 </v>
   <v>       0.79682004       0.28797522       0.57210846 </v>
   <v>       0.49867761       0.43038204       0.50659568 </v>
   <v>       0.53314361       0.39541492       0.51093884 </v>
   <v>       0.60342807       0.43138259       0.51302262 </v>
   <v>       0.83419725       0.42843116       0.51260527 </v>
   <v>       0.48261873       0.28245866       0.45490470 </v>
   <v>       0.63792901       0.50164322       0.50936998 </v>
   <v>       0.60183411       0.53492180       0.50508734 </v>
   <v>       0.42325416       0.50263184       0.50416594 </v>
   <v>       0.38719124       0.53597902       0.50797775 </v>
   <v>       0.71195998       0.53351583       0.51173487 </v>
   <v>       0.82672695       0.53070142       0.51425779 </v>
   <v>       0.74349490       0.53474790       0.57373657 </v>
   <v>       0.31315663       0.50422502       0.51012399 </v>
   <v>       0.19845459       0.50721918       0.51269814 </v>
   <v>       0.28165739       0.50304307       0.57213873 </v>
   <v>       0.53146898       0.50062024       0.50437877 </v>
   <v>       0.49363214       0.53687491       0.50419728 </v>
   <v>       0.97542656       0.49999997       0.50431393 </v>
   <v>       0.93821512       0.53301166       0.50723233 </v>
   <v>       0.86878322       0.49873369       0.51141096 </v>
   <v>       0.04950442       0.53763816       0.50405171 </v>
   <v>       0.15626392       0.53906422       0.51014401 </v>
   <v>       0.08681037       0.50469673       0.50631090 </v>
   <v>       0.80584325       0.54893193       0.45609547 </v>
   <v>       0.21931835       0.48899428       0.45452161 </v>
   <v>       0.52854621       0.94546819       0.50484229 </v>
   <v>       0.49523882       0.87609971       0.50935675 </v>
   <v>       0.08570765       0.60800030       0.50427951 </v>
   <v>       0.15509743       0.64398024       0.50808446 </v>
   <v>       0.52702601       0.83382837       0.51140492 </v>
   <v>       0.52391896       0.71609813       0.51362170 </v>
   <v>       0.52864419       0.80356792       0.57329485 </v>
   <v>       0.19738788       0.71798988       0.51043608 </v>
   <v>       0.31507160       0.83262336       0.51355271 </v>
   <v>       0.22738899       0.74936487       0.57258643 </v>
   <v>       0.49430552       0.98160129       0.50407150 </v>
   <v>       0.42499695       0.84042959       0.51337701 </v>
   <v>       0.38909919       0.87481154       0.51119769 </v>
   <v>       0.42406884       0.94421645       0.50645997 </v>
   <v>       0.42173121       0.60623130       0.51188480 </v>
   <v>       0.49201780       0.64208600       0.51077275 </v>
   <v>       0.52646622       0.60709241       0.50686310 </v>
   <v>       0.19073630       0.60936176       0.51170672 </v>
   <v>       0.54192520       0.75518404       0.45545863 </v>
   <v>       0.27628585       0.81188430       0.45517846 </v>
   <v>       0.67888791       0.28597822       0.51804467 </v>
   <v>       0.44206558       0.06610720       0.50115862 </v>
   <v>       0.50061124       0.16432915       0.63299296 </v>
   <v>       0.50447695       0.23241556       0.67324759 </v>
   <v>       0.63024315       0.06820398       0.50594214 </v>
   <v>       0.73188790       0.19939482       0.40688412 </v>
   <v>       0.61346796       0.35253658       0.52064236 </v>
   <v>       0.39470555       0.44835868       0.50120928 </v>
   <v>       0.74528712       0.41847560       0.52055665 </v>
   <v>       0.96470768       0.40095837       0.50111739 </v>
   <v>       0.86556616       0.36014532       0.63390366 </v>
   <v>       0.79755161       0.29535750       0.67347233 </v>
   <v>       0.44436997       0.40092636       0.50610289 </v>
   <v>       0.06183647       0.45037925       0.50627381 </v>
   <v>       0.47257466       0.29992752       0.40802335 </v>
   <v>       0.63036102       0.58919895       0.50228161 </v>
   <v>       0.67144642       0.53174747       0.63549618 </v>
   <v>       0.73614043       0.52834236       0.67512097 </v>
   <v>       0.35366190       0.50585324       0.63381450 </v>
   <v>       0.28909063       0.50941374       0.67352006 </v>
   <v>       0.96324893       0.58733124       0.50735976 </v>
   <v>       0.83292590       0.55880926       0.40895201 </v>
   <v>       0.19220765       0.47909197       0.40739739 </v>
   <v>       0.34608584       0.75160681       0.52144419 </v>
   <v>       0.58280727       0.97116974       0.50187093 </v>
   <v>       0.41162426       0.68513337       0.51938772 </v>
   <v>       0.27964650       0.61936121       0.51922083 </v>
   <v>       0.06005942       0.63662079       0.50148122 </v>
   <v>       0.52647003       0.87299341       0.63506156 </v>
   <v>       0.52332315       0.80507717       0.67474494 </v>
   <v>       0.15800853       0.67716620       0.63389518 </v>
   <v>       0.22583899       0.74164510       0.67394634 </v>
   <v>       0.39461924       0.96907803       0.50570343 </v>
   <v>       0.58077001       0.63651314       0.50706012 </v>
   <v>       0.55155613       0.73794897       0.40820905 </v>
   <v>       0.29378599       0.83906096       0.40811764 </v>
   <v>       0.49208845       0.20323798       0.63191755 </v>
   <v>       0.73564326       0.23423661       0.57153588 </v>
   <v>       0.48560945       0.22588447       0.45331098 </v>
   <v>       0.50517387       0.29506144       0.57199786 </v>
   <v>       0.82700942       0.31254111       0.63235929 </v>
   <v>       0.80543228       0.28593795       0.45337201 </v>
   <v>       0.79711952       0.52712696       0.57333806 </v>
   <v>       0.71894890       0.54052192       0.63394746 </v>
   <v>       0.22811563       0.51079798       0.57174830 </v>
   <v>       0.30618069       0.49715615       0.63232566 </v>
   <v>       0.74614825       0.54563652       0.45504879 </v>
   <v>       0.27898348       0.49219973       0.45344738 </v>
   <v>       0.52075279       0.74220524       0.57281124 </v>
   <v>       0.53526857       0.83427198       0.63345019 </v>
   <v>       0.28867911       0.80289270       0.57251579 </v>
   <v>       0.19664959       0.72474407       0.63262381 </v>
   <v>       0.53878694       0.81166657       0.45460090 </v>
   <v>       0.21980040       0.75226235       0.45383727 </v>
  </varray>
 </structure>
 <calculation>
  <scstep>
   <time name="dav">  452.21  456.94</time>
   <time name="total">  452.35  457.09</time>
   <energy>
    <i name="alphaZ">     80.07966955 </i>
    <i name="ewald">  54796.74406807 </i>
    <i name="hartreedc"> -68644.18058440 </i>
    <i name="XCdc">   1462.45982015 </i>
    <i name="pawpsdc">  37958.50525883 </i>
    <i name="pawaedc"> -38038.41515578 </i>
    <i name="eentropy">     -0.00000000 </i>
    <i name="bandstr">  -5106.88977375 </i>
    <i name="atom">  16634.18267381 </i>
    <i name="e_fr_energy">   -857.51402351 </i>
    <i name="e_wo_entrp">   -857.51402351 </i>
    <i name="e_0_energy">   -857.51402351 </i>
   </energy>
  </scstep>
  <scstep>
   <time name="dav">  513.77  519.13</time>
   <time name="total">  513.77  519.13</time>
   <energy>
    <i name="e_fr_energy">   -858.38602897 </i>
    <i name="e_wo_entrp">   -858.38602897 </i>
    <i name="e_0_energy">   -858.38602897 </i>
   </energy>
  </scstep>
  <scstep>
   <time name="dav">  541.12  546.82</time>
   <time name="total">  541.13  546.82</time>
   <energy>
    <i name="e_fr_energy">   -858.40796090 </i>
    <i name="e_wo_entrp">   -858.40796090 </i>
    <i name="e_0_energy">   -858.40796090 </i>
   </energy>
  </scstep>
  <scstep>
   <time name="dav">  513.99  519.37</time>
   <time name="total">  513.99  519.37</time>
   <energy>
    <i name="e_fr_energy">   -858.40852141 </i>
    <i name="e_wo_entrp">   -858.40852141 </i>
    <i name="e_0_energy">   -858.40852141 </i>
   </energy>
  </scstep>
  <scstep>
   <time name="dav">  498.11  503.24</time>
   <time name="total">  498.11  503.24</time>
   <energy>
    <i name="e_fr_energy">   -858.40855225 </i>
    <i name="e_wo_entrp">   -858.40855225 </i>
    <i name="e_0_energy">   -858.40855225 </i>
   </energy>
  </scstep>
  <scstep>
   <time name="dav">  395.94  400.03</time>
   <time name="total">  395.94  400.03</time>
   <energy>
    <i name="alphaZ">     80.07966955 </i>
    <i name="ewald">  54796.74406807 </i>
    <i name="hartreedc"> -68644.18058440 </i>
    <i name="XCdc">   1462.45982015 </i>
    <i name="pawpsdc">  37958.50525883 </i>
    <i name="pawaedc"> -38038.41515578 </i>
    <i name="eentropy">     -0.00000000 </i>
    <i name="bandstr">  -5107.78430349 </i>
    <i name="atom">  16634.18267381 </i>
    <i name="e_fr_energy">   -858.40855325 </i>
    <i name="e_wo_entrp">   -858.40855325 </i>
    <i name="e_0_energy">   -858.40855325 </i>
   </energy>
  </scstep>
  <structure>
   <crystal>
    <varray name="basis" >
     <v>      23.13571384       0.00041126       0.00000000 </v>
     <v>     -11.56749410      20.03516058       0.00000000 </v>
     <v>       0.00000000       0.00000000      20.00000000 </v>
    </varray>
    <i name="volume">   9270.64998212 </i>
    <varray name="rec_basis" >
     <v>       0.04322277       0.02495509       0.00000000 </v>
     <v>      -0.00000089       0.04991174       0.00000000 </v>
     <v>       0.00000000       0.00000000       0.05000000 </v>
    </varray>
   </crystal>
   <varray name="positions" >
    <v>       0.63027808       0.26517984       0.51436920 </v>
    <v>       0.64134646       0.40117646       0.51736162 </v>
    <v>       0.76604218       0.39063759       0.51664161 </v>
    <v>       0.39471632       0.77232104       0.51811938 </v>
    <v>       0.38384512       0.63650796       0.51577320 </v>
    <v>       0.25887492       0.64721198       0.51572720 </v>
    <v>       0.52970956       0.16127105       0.50704739 </v>
    <v>       0.49635946       0.09184234       0.50360799 </v>
    <v>       0.49798307       0.20355500       0.50966933 </v>
    <v>       0.49736969       0.23375344       0.57194761 </v>
    <v>       0.70983533       0.20489732       0.51226441 </v>
    <v>       0.53059691       0.05569978       0.50352865 </v>
    <v>       0.60083495       0.09310571       0.50578533 </v>
    <v>       0.63582877       0.16256773       0.50941681 </v>
    <v>       0.59997623       0.19700449       0.51061070 </v>
    <v>       0.74901176       0.22621854       0.45417529 </v>
    <v>       0.86975653       0.39375983       0.50844175 </v>
    <v>       0.93913974       0.42963809       0.50433159 </v>
    <v>       0.50129715       0.32137116       0.51320302 </v>
    <v>       0.82734461       0.31975490       0.51026142 </v>
    <v>       0.79682004       0.28797522       0.57210846 </v>
    <v>       0.49867761       0.43038204       0.50659568 </v>
    <v>       0.53314361       0.39541492       0.51093884 </v>
    <v>       0.60342807       0.43138259       0.51302262 </v>
    <v>       0.83419725       0.42843116       0.51260527 </v>
    <v>       0.48261873       0.28245866       0.45490470 </v>
    <v>       0.63792901       0.50164322       0.50936998 </v>
    <v>       0.60183411       0.53492180       0.50508734 </v>
    <v>       0.42325416       0.50263184       0.50416594 </v>
    <v>       0.38719124       0.53597902       0.50797775 </v>
    <v>       0.71195998       0.53351583       0.51173487 </v>
    <v>       0.82672695       0.53070142       0.51425779 </v>
    <v>       0.74349490       0.53474790       0.57373657 </v>
    <v>       0.31315663       0.50422502       0.51012399 </v>
    <v>       0.19845459       0.50721918       0.51269814 </v>
    <v>       0.28165739       0.50304307       0.57213873 </v>
    <v>       0.53146898       0.50062024       0.50437877 </v>
    <v>       0.49363214       0.53687491       0.50419728 </v>
    <v>       0.97542656       0.49999997       0.50431393 </v>
    <v>       0.93821512       0.53301166       0.50723233 </v>
    <v>       0.86878322       0.49873369       0.51141096 </v>
    <v>       0.04950442       0.53763816       0.50405171 </v>
    <v>       0.15626392       0.53906422       0.51014401 </v>
    <v>       0.08681037       0.50469673       0.50631090 </v>
    <v>       0.80584325       0.54893193       0.45609547 </v>
    <v>       0.21931835       0.48899428       0.45452161 </v>
    <v>       0.52854621       0.94546819       0.50484229 </v>
    <v>       0.49523882       0.87609971       0.50935675 </v>
    <v>       0.08570765       0.60800030       0.50427951 </v>
    <v>       0.15509743       0.64398024       0.50808446 </v>
    <v>       0.52702601       0.83382837       0.51140492 </v>
    <v>       0.52391896       0.71609813       0.51362170 </v>
    <v>       0.52864419       0.80356792       0.57329485 </v>
    <v>       0.19738788       0.71798988       0.51043608 </v>
    <v>       0.31507160       0.83262336       0.51355271 </v>
    <v>       0.22738899       0.74936487       0.57258643 </v>
    <v>       0.49430552       0.98160129       0.50407150 </v>
    <v>       0.42499695       0.84042959       0.51337701 </v>
    <v>       0.38909919       0.87481154       0.51119769 </v>
    <v>       0.42406884       0.94421645       0.50645997 </v>
    <v>       0.42173121       0.60623130       0.51188480 </v>
    <v>       0.49201780       0.64208600       0.51077275 </v>
    <v>       0.52646622       0.60709241       0.50686310 </v>
    <v>       0.19073630       0.60936176       0.51170672 </v>
    <v>       0.54192520       0.75518404       0.45545863 </v>
    <v>       0.27628585       0.81188430       0.45517846 </v>
    <v>       0.67888791       0.28597822       0.51804467 </v>
    <v>       0.44206558       0.06610720       0.50115862 </v>
    <v>       0.50061124       0.16432915       0.63299296 </v>
    <v>       0.50447695       0.23241556       0.67324759 </v>
    <v>       0.63024315       0.06820398       0.50594214 </v>
    <v>       0.73188790       0.19939482       0.40688412 </v>
    <v>       0.61346796       0.35253658       0.52064236 </v>
    <v>       0.39470555       0.44835868       0.50120928 </v>
    <v>       0.74528712       0.41847560       0.52055665 </v>
    <v>       0.96470768       0.40095837       0.50111739 </v>
    <v>       0.86556616       0.36014532       0.63390366 </v>
    <v>       0.79755161       0.29535750       0.67347233 </v>
    <v>       0.44436997       0.40092636       0.50610289 </v>
    <v>       0.06183647       0.45037925       0.50627381 </v>
    <v>       0.47257466       0.29992752       0.40802335 </v>
    <v>       0.63036102       0.58919895       0.50228161 </v>
    <v>       0.67144642       0.53174747       0.63549618 </v>
    <v>       0.73614043       0.52834236       0.67512097 </v>
    <v>       0.35366190       0.50585324       0.63381450 </v>
    <v>       0.28909063       0.50941374       0.67352006 </v>
    <v>       0.96324893       0.58733124       0.50735976 </v>
    <v>       0.83292590       0.55880926       0.40895201 </v>
    <v>       0.19220765       0.47909197       0.40739739 </v>
    <v>       0.34608584       0.75160681       0.52144419 </v>
    <v>       0.58280727       0.97116974       0.50187093 </v>
    <v>       0.41162426       0.68513337       0.51938772 </v>
    <v>       0.27964650       0.61936121       0.51922083 </v>
    <v>       0.06005942       0.63662079       0.50148122 </v>
    <v>       0.52647003       0.87299341       0.63506156 </v>
    <v>       0.52332315       0.80507717       0.67474494 </v>
    <v>       0.15800853       0.67716620       0.63389518 </v>
    <v>       0.22583899       0.74164510       0.67394634 </v>
    <v>       0.39461924       0.96907803       0.50570343 </v>
    <v>       0.58077001       0.63651314       0.50706012 </v>
    <v>       0.55155613       0.73794897       0.40820905 </v>
    <v>       0.29378599       0.83906096       0.40811764 </v>
    <v>       0.49208845       0.20323798       0.63191755 </v>
    <v>       0.73564326       0.23423661       0.57153588 </v>
    <v>       0.48560945       0.22588447       0.45331098 </v>
    <v>       0.50517387       0.29506144       0.57199786 </v>
    <v>       0.82700942       0.31254111       0.63235929 </v>
    <v>       0.80543228       0.28593795       0.45337201 </v>
    <v>       0.79711952       0.52712696       0.57333806 </v>
    <v>       0.71894890       0.54052192       0.63394746 </v>
    <v>       0.22811563       0.51079798       0.57174830 </v>
    <v>       0.30618069       0.49715615       0.63232566 </v>
    <v>       0.74614825       0.54563652       0.45504879 </v>
    <v>       0.27898348       0.49219973       0.45344738 </v>
    <v>       0.52075279       0.74220524       0.57281124 </v>
    <v>       0.53526857       0.83427198       0.63345019 </v>
    <v>       0.28867911       0.80289270       0.57251579 </v>
    <v>       0.19664959       0.72474407       0.63262381 </v>
    <v>       0.53878694       0.81166657       0.45460090 </v>
    <v>       0.21980040       0.75226235       0.45383727 </v>
   </varray>
  </structure>
  <varray name="forces" >
   <v>      -0.00197272       0.00130928      -0.00637417 </v>
   <v>      -0.00066294       0.00102150      -0.00200513 </v>
   <v>      -0.00059987      -0.00142250      -0.00044153 </v>
   <v>       0.00117235      -0.00067925       0.00110116 </v>
   <v>      -0.00120489       0.00035179       0.00228056 </v>
   <v>      -0.00154257       0.00228403       0.00137610 </v>
   <v>      -0.00118183      -0.00279425      -0.00144247 </v>
   <v>      -0.00004245      -0.00295254       0.00116260 </v>
   <v>       0.00530748       0.00009957       0.00262451 </v>
   <v>      -0.00237338      -0.00211113       0.00108774 </v>
   <v>       0.00119462       0.00075264       0.00295769 </v>
   <v>      -0.00149581      -0.00137185       0.00011298 </v>
   <v>       0.00066000      -0.00080293      -0.00031374 </v>
   <v>       0.00242030       0.00163608      -0.00017419 </v>
   <v>      -0.00118014      -0.00018060      -0.00190115 </v>
   <v>      -0.00035434      -0.00236920      -0.00639465 </v>
   <v>      -0.00079762      -0.00149012      -0.00059994 </v>
   <v>       0.00205221       0.00039574       0.00049458 </v>
   <v>      -0.00042813       0.00340591      -0.00137127 </v>
   <v>      -0.00276023      -0.00369205      -0.00179273 </v>
   <v>       0.00083651      -0.00202752      -0.00145621 </v>
   <v>      -0.00096942      -0.00046784      -0.00037089 </v>
   <v>      -0.00132209      -0.00098889      -0.00029098 </v>
   <v>      -0.00037944      -0.00117575      -0.00051238 </v>
   <v>      -0.00130589       0.00108187       0.00110546 </v>
   <v>       0.00074534       0.00060903      -0.00213070 </v>
   <v>      -0.00275752      -0.00208216       0.00101495 </v>
   <v>      -0.00156655      -0.00029002       0.00087662 </v>
   <v>       0.00229366      -0.00111870       0.00165791 </v>
   <v>      -0.00283808      -0.00077441       0.00032838 </v>
   <v>       0.00089626      -0.00189189      -0.00180058 </v>
   <v>      -0.00097863      -0.00018585      -0.00064603 </v>
   <v>      -0.00005524      -0.00185761       0.00420073 </v>
   <v>      -0.00051221       0.00163051       0.00083722 </v>
   <v>       0.00092413       0.00042327      -0.00066512 </v>
   <v>      -0.00354451       0.00042295       0.00111674 </v>
   <v>      -0.00052974      -0.00179654       0.00075243 </v>
   <v>       0.00139753      -0.00380689      -0.00010955 </v>
   <v>       0.00114656       0.00199195      -0.00046820 </v>
   <v>      -0.00061195       0.00118007      -0.00077348 </v>
   <v>      -0.00064495       0.00070229      -0.00089203 </v>
   <v>       0.00014139       0.00070241       0.00123578 </v>
   <v>       0.00032147       0.00384975      -0.00008981 </v>
   <v>      -0.00084050      -0.00036056      -0.00108698 </v>
   <v>      -0.00257241      -0.00118403       0.00156487 </v>
   <v>       0.00092611       0.00121658       0.00043589 </v>
   <v>      -0.00071654       0.00006655       0.00017504 </v>
   <v>       0.00070581      -0.00042037      -0.00018677 </v>
   <v>      -0.00117716       0.00011481      -0.00017216 </v>
   <v>      -0.00068108      -0.00224938      -0.00224010 </v>
   <v>       0.00186256      -0.00039193       0.00349448 </v>
   <v>      -0.00234971       0.00084383       0.00079503 </v>
   <v>      -0.00181720       0.00225498       0.00361006 </v>
   <v>      -0.00253201       0.00529302      -0.00138504 </v>
   <v>       0.00144044      -0.00155243       0.00470805 </v>
   <v>      -0.00271277      -0.00207733       0.00168403 </v>
   <v>      -0.00126008       0.00178728      -0.00166206 </v>
   <v>       0.00048879      -0.00041211       0.00113070 </v>
   <v>      -0.00189018       0.00028924       0.00064721 </v>
   <v>       0.00079491      -0.00038760      -0.00052558 </v>
   <v>       0.00021264       0.00027871       0.00091382 </v>
   <v>       0.00059783      -0.00055581       0.00004973 </v>
   <v>      -0.00067551      -0.00152192      -0.00007306 </v>
   <v>      -0.00058450       0.00224033       0.00062024 </v>
   <v>       0.00069125       0.00094301      -0.00035630 </v>
   <v>      -0.00158646       0.00146618      -0.00148839 </v>
   <v>       0.00158972      -0.00049119      -0.00417674 </v>
   <v>       0.00110881       0.00102114      -0.00128224 </v>
   <v>       0.00047378       0.00592116      -0.00191094 </v>
   <v>       0.00519542      -0.00283814      -0.00068099 </v>
   <v>       0.00185426       0.00133834      -0.00119924 </v>
   <v>      -0.00104489       0.00108397       0.00378140 </v>
   <v>       0.00053222      -0.00394176       0.00010107 </v>
   <v>      -0.00002825       0.00173778       0.00290138 </v>
   <v>      -0.00024709       0.00089616      -0.00283895 </v>
   <v>      -0.00036427      -0.00088201       0.00036072 </v>
   <v>      -0.00019911      -0.00109226      -0.00033001 </v>
   <v>      -0.00150586      -0.00207691       0.00051067 </v>
   <v>       0.00018249      -0.00040638      -0.00138905 </v>
   <v>      -0.00032262       0.00125782      -0.00076317 </v>
   <v>      -0.00161879      -0.00215433      -0.00127559 </v>
   <v>       0.00164984      -0.00221121       0.00121309 </v>
   <v>      -0.00126313      -0.00345605      -0.00056514 </v>
   <v>       0.00032314      -0.00080295      -0.00032726 </v>
   <v>      -0.00186639       0.00243554      -0.00039627 </v>
   <v>      -0.00058496       0.00041342       0.00206811 </v>
   <v>      -0.00098968      -0.00093203       0.00039275 </v>
   <v>       0.00016584       0.00005154       0.00052140 </v>
   <v>       0.00028712       0.00133324      -0.00008795 </v>
   <v>      -0.00012641       0.00033092      -0.00006491 </v>
   <v>       0.00185278       0.00023342      -0.00141106 </v>
   <v>       0.00323166       0.00092123      -0.00081604 </v>
   <v>       0.00308799      -0.00108782      -0.00212389 </v>
   <v>      -0.00049116       0.00046174       0.00176587 </v>
   <v>       0.00015444      -0.00128770       0.00081781 </v>
   <v>      -0.00032149      -0.00080611      -0.00155032 </v>
   <v>      -0.00063704       0.00413864      -0.00010438 </v>
   <v>       0.00045319       0.00406007      -0.00021465 </v>
   <v>       0.00217554       0.00026992       0.00126988 </v>
   <v>       0.00260553       0.00126707      -0.00007569 </v>
   <v>       0.00056503      -0.00042612       0.00182037 </v>
   <v>       0.00056810      -0.00040893       0.00069141 </v>
   <v>      -0.00643279      -0.00532484       0.00419366 </v>
   <v>       0.00046635       0.00149375      -0.00114754 </v>
   <v>       0.00143663      -0.00044403       0.00113388 </v>
   <v>       0.00339406      -0.00003718       0.00587860 </v>
   <v>      -0.00202451       0.00350892      -0.00129433 </v>
   <v>       0.00085911       0.00122429       0.00179458 </v>
   <v>      -0.00181256      -0.00129975       0.00259606 </v>
   <v>       0.00341429       0.00559689      -0.00221560 </v>
   <v>       0.00206113       0.00154948      -0.00121380 </v>
   <v>       0.00496411       0.00262758      -0.00043947 </v>
   <v>       0.00126525       0.00256997      -0.00172414 </v>
   <v>       0.00674189       0.00249274      -0.00116218 </v>
   <v>       0.00113061      -0.00055828       0.00065734 </v>
   <v>       0.00174780      -0.00207721      -0.00020877 </v>
   <v>      -0.00095013       0.00165679       0.00042043 </v>
   <v>      -0.00248787      -0.00544389      -0.00196433 </v>
   <v>      -0.00001716      -0.00239438      -0.00319491 </v>
   <v>      -0.00342288      -0.00021331      -0.00070092 </v>
  </varray>
  <varray name="stress" >
   <v>       0.03125354      -0.00101484      -0.00056080 </v>
   <v>      -0.00101485       0.01622949      -0.00133871 </v>
   <v>      -0.00056079      -0.00133871      -0.31387880 </v>
  </varray>
  <energy>
   <i name="e_fr_energy">   -861.61362230 </i>
   <i name="e_wo_entrp">   -861.61362230 </i>
   <i name="e_0_energy">     -0.00000000 </i>
  </energy>
  <time name="totalsc"> 3436.61 3473.86</time>
  <eigenvalues>
   <array>
    <dimension dim="1">band</dimension>
    <dimension dim="2">kpoint</dimension>
    <dimension dim="3">spin</dimension>
    <field>eigene</field>
    <field>occ</field>
    <set>
     <set comment="spin 1">
      <set comment="kpoint 1">
       <r>  -26.2760    1.0000 </r>
       <r>  -26.2754    1.0000 </r>
       <r>  -26.1440    1.0000 </r>
       <r>  -26.1429    1.0000 </r>
       <r>  -26.1410    1.0000 </r>
       <r>  -26.1403    1.0000 </r>
       <r>  -24.2802    1.0000 </r>
       <r>  -24.2802    1.0000 </r>
       <r>  -24.2791    1.0000 </r>
       <r>  -24.2787    1.0000 </r>
       <r>  -24.2563    1.0000 </r>
       <r>  -24.2561    1.0000 </r>
       <r>  -22.6796    1.0000 </r>
       <r>  -22.6795    1.0000 </r>
       <r>  -22.6793    1.0000 </r>
       <r>  -22.6779    1.0000 </r>
       <r>  -22.6764    1.0000 </r>
       <r>  -22.6761    1.0000 </r>
       <r>  -21.8334    1.0000 </r>
       <r>  -21.8321    1.0000 </r>
       <r>  -21.8070    1.0000 </r>
       <r>  -21.8057    1.0000 </r>
       <r>  -21.7703    1.0000 </r>
       <r>  -21.7691    1.0000 </r>
       <r>  -21.1866    1.0000 </r>
       <r>  -21.0857    1.0000 </r>
       <r>  -21.0853    1.0000 </r>
       <r>  -20.7126    1.0000 </r>
       <r>  -20.6374    1.0000 </r>
       <r>  -20.6366    1.0000 </r>
       <r>  -19.3244    1.0000 </r>
       <r>  -19.2932    1.0000 </r>
       <r>  -19.2150    1.0000 </r>
       <r>  -19.2144    1.0000 </r>
       <r>  -19.0368    1.0000 </r>
       <r>  -19.0364    1.0000 </r>
       <r>  -18.9600    1.0000 </r>
       <r>  -18.7996    1.0000 </r>
       <r>  -18.7994    1.0000 </r>
       <r>  -18.1694    1.0000 </r>
       <r>  -18.1690    1.0000 </r>
       <r>  -17.6354    1.0000 </r>
       <r>  -17.6341    1.0000 </r>
       <r>  -17.5571    1.0000 </r>
       <r>  -17.4584    1.0000 </r>
       <r>  -17.1725    1.0000 </r>
       <r>  -17.1161    1.0000 </r>
       <r>  -17.1150    1.0000 </r>
       <r>  -16.2707    1.0000 </r>
       <r>  -16.2694    1.0000 </r>
       <r>  -16.0187    1.0000 </r>
       <r>  -16.0091    1.0000 </r>
       <r>  -15.8873    1.0000 </r>
       <r>  -15.8857    1.0000 </r>
       <r>  -15.5553    1.0000 </r>
       <r>  -15.5496    1.0000 </r>
       <r>  -15.5255    1.0000 </r>
       <r>  -15.5250    1.0000 </r>
       <r>  -15.5224    1.0000 </r>
       <r>  -15.5217    1.0000 </r>
       <r>  -15.2779    1.0000 </r>
       <r>  -15.1861    1.0000 </r>
       <r>  -15.1838    1.0000 </r>
       <r>  -15.0540    1.0000 </r>
       <r>  -14.5788    1.0000 </r>
       <r>  -14.5785    1.0000 </r>
       <r>  -14.4188    1.0000 </r>
       <r>  -14.1614    1.0000 </r>
       <r>  -14.1608    1.0000 </r>
       <r>  -14.0322    1.0000 </r>
       <r>  -13.9622    1.0000 </r>
       <r>  -13.9603    1.0000 </r>
       <r>  -13.4522    1.0000 </r>
       <r>  -13.3844    1.0000 </r>
       <r>  -13.3546    1.0000 </r>
       <r>  -13.3541    1.0000 </r>
       <r>  -13.2994    1.0000 </r>
       <r>  -13.2985    1.0000 </r>
       <r>  -13.0320    1.0000 </r>
       <r>  -12.9384    1.0000 </r>
       <r>  -12.9371    1.0000 </r>
       <r>  -12.9006    1.0000 </r>
       <r>  -12.8997    1.0000 </r>
       <r>  -12.8609    1.0000 </r>
       <r>  -12.6493    1.0000 </r>
       <r>  -12.5647    1.0000 </r>
       <r>  -12.5641    1.0000 </r>
       <r>  -12.3338    1.0000 </r>
       <r>  -12.3326    1.0000 </r>
       <r>  -12.3294    1.0000 </r>
       <r>  -12.1438    1.0000 </r>
       <r>  -12.1420    1.0000 </r>
       <r>  -11.9252    1.0000 </r>
       <r>  -11.8611    1.0000 </r>
       <r>  -11.8596    1.0000 </r>
       <r>  -11.7533    1.0000 </r>
       <r>  -11.5303    1.0000 </r>
       <r>  -11.4016    1.0000 </r>
       <r>  -11.4008    1.0000 </r>
       <r>  -11.3659    1.0000 </r>
       <r>  -11.3571    1.0000 </r>
       <r>  -11.3539    1.0000 </r>
       <r>  -11.3421    1.0000 </r>
       <r>  -11.3063    1.0000 </r>
       <r>  -11.3044    1.0000 </r>
       <r>  -11.0865    1.0000 </r>
       <r>  -11.0850    1.0000 </r>
       <r>  -11.0753    1.0000 </r>
       <r>  -10.8326    1.0000 </r>
       <r>  -10.7914    1.0000 </r>
       <r>  -10.7905    1.0000 </r>
       <r>  -10.5138    1.0000 </r>
       <r>  -10.4677    1.0000 </r>
       <r>  -10.4668    1.0000 </r>
       <r>  -10.3620    1.0000 </r>
       <r>  -10.3610    1.0000 </r>
       <r>  -10.3165    1.0000 </r>
       <r>  -10.0692    1.0000 </r>
       <r>  -10.0424    1.0000 </r>
       <r>  -10.0416    1.0000 </r>
       <r>   -9.9265    1.0000 </r>
       <r>   -9.9248    1.0000 </r>
       <r>   -9.7885    1.0000 </r>
       <r>   -9.7572    1.0000 </r>
       <r>   -9.7561    1.0000 </r>
       <r>   -9.6415    1.0000 </r>
       <r>   -9.6402    1.0000 </r>
       <r>   -9.6368    1.0000 </r>
       <r>   -9.5855    1.0000 </r>
       <r>   -9.5705    1.0000 </r>
       <r>   -9.5503    1.0000 </r>
       <r>   -9.5130    1.0000 </r>
       <r>   -9.5115    1.0000 </r>
       <r>   -9.2507    1.0000 </r>
       <r>   -9.2502    1.0000 </r>
       <r>   -9.1557    1.0000 </r>
       <r>   -9.1538    1.0000 </r>
       <r>   -9.1357    1.0000 </r>
       <r>   -8.9873    1.0000 </r>
       <r>   -8.9854    1.0000 </r>
       <r>   -8.8643    1.0000 </r>
       <r>   -8.8631    1.0000 </r>
       <r>   -8.8563    1.0000 </r>
       <r>   -8.7368    1.0000 </r>
       <r>   -8.5324    1.0000 </r>
       <r>   -8.4546    1.0000 </r>
       <r>   -8.4531    1.0000 </r>
       <r>   -8.3889    1.0000 </r>
       <r>   -8.3876    1.0000 </r>
       <r>   -8.1625    1.0000 </r>
       <r>   -8.1035    1.0000 </r>
       <r>   -8.1014    1.0000 </r>
       <r>   -8.0068    1.0000 </r>
       <r>   -8.0062    1.0000 </r>
       <r>   -8.0020    1.0000 </r>
       <r>   -7.9902    1.0000 </r>
       <r>   -7.9898    1.0000 </r>
       <r>   -7.9088    1.0000 </r>
       <r>   -7.8824    1.0000 </r>
       <r>   -7.5240    1.0000 </r>
       <r>   -7.4891    1.0000 </r>
       <r>   -7.4883    1.0000 </r>
       <r>   -7.4542    1.0000 </r>
       <r>   -7.4519    1.0000 </r>
       <r>   -7.3750    1.0000 </r>
       <r>   -6.9962    1.0000 </r>
       <r>   -6.9946    1.0000 </r>
       <r>   -6.9325    1.0000 </r>
       <r>   -6.9306    1.0000 </r>
       <r>   -6.9091    1.0000 </r>
       <r>   -6.8943    1.0000 </r>
       <r>   -6.5507    1.0000 </r>
       <r>   -6.5468    1.0000 </r>
       <r>   -6.5333    1.0000 </r>
       <r>   -6.5301    1.0000 </r>
       <r>   -6.4897    1.0000 </r>
       <r>   -6.4682    1.0000 </r>
       <r>   -6.1795    1.0000 </r>
       <r>   -6.0687    1.0000 </r>
       <r>   -5.9306    1.0000 </r>
       <r>   -5.9288    1.0000 </r>
       <r>   -5.8999    1.0000 </r>
       <r>   -5.8990    1.0000 </r>
       <r>   -5.7215    1.0000 </r>
       <r>   -5.6768    1.0000 </r>
       <r>   -5.6762    1.0000 </r>
       <r>   -5.3795    1.0000 </r>
       <r>   -5.3526    1.0000 </r>
       <r>   -5.3519    1.0000 </r>
       <r>   -5.3310    1.0000 </r>
       <r>   -5.2255    1.0000 </r>
       <r>   -5.2243    1.0000 </r>
       <r>   -4.9109    1.0000 </r>
       <r>   -4.9087    1.0000 </r>
       <r>   -4.8514    1.0000 </r>
       <r>   -4.8488    1.0000 </r>
       <r>   -4.8283    1.0000 </r>
       <r>   -4.8034    1.0000 </r>
       <r>   -4.4981    1.0000 </r>
       <r>   -4.4055    1.0000 </r>
       <r>   -4.4035    1.0000 </r>
       <r>   -1.8857    0.0000 </r>
       <r>   -1.8108    0.0000 </r>
       <r>   -1.6495    0.0000 </r>
       <r>   -1.6477    0.0000 </r>
       <r>   -1.6043    0.0000 </r>
       <r>   -1.6016    0.0000 </r>
       <r>   -1.3280    0.0000 </r>
       <r>   -1.3133    0.0000 </r>
       <r>   -1.2509    0.0000 </r>
       <r>   -1.2483    0.0000 </r>
       <r>   -1.1196    0.0000 </r>
       <r>   -1.0873    0.0000 </r>
       <r>   -1.0832    0.0000 </r>
       <r>   -0.8982    0.0000 </r>
       <r>   -0.8957    0.0000 </r>
       <r>   -0.7346    0.0000 </r>
       <r>   -0.7323    0.0000 </r>
       <r>   -0.6541    0.0000 </r>
       <r>   -0.3767    0.0000 </r>
       <r>   -0.3755    0.0000 </r>
       <r>   -0.3290    0.0000 </r>
       <r>   -0.2216    0.0000 </r>
       <r>   -0.1092    0.0000 </r>
       <r>    0.0135    0.0000 </r>
       <r>    0.0164    0.0000 </r>
       <r>    0.1908    0.0000 </r>
       <r>    0.1943    0.0000 </r>
       <r>    0.3189    0.0000 </r>
       <r>    0.4001    0.0000 </r>
       <r>    0.4024    0.0000 </r>
       <r>    0.4585    0.0000 </r>
       <r>    0.5478    0.0000 </r>
       <r>    0.5941    0.0000 </r>
       <r>    0.5967    0.0000 </r>
       <r>    0.5977    0.0000 </r>
       <r>    0.6066    0.0000 </r>
       <r>    0.6070    0.0000 </r>
       <r>    0.8058    0.0000 </r>
       <r>    0.8297    0.0000 </r>
       <r>    0.8643    0.0000 </r>
       <r>    0.8788    0.0000 </r>
       <r>    0.8811    0.0000 </r>
       <r>    1.0303    0.0000 </r>
       <r>    1.0330    0.0000 </r>
       <r>    1.0350    0.0000 </r>
       <r>    1.0363    0.0000 </r>
       <r>    1.0573    0.0000 </r>
       <r>    1.0813    0.0000 </r>
       <r>    1.1939    0.0000 </r>
       <r>    1.1965    0.0000 </r>
       <r>    1.2436    0.0000 </r>
       <r>    1.2468    0.0000 </r>
       <r>    1.2794    0.0000 </r>
       <r>    1.2846    0.0000 </r>
       <r>    1.3883    0.0000 </r>
       <r>    1.3943    0.0000 </r>
       <r>    1.4351    0.0000 </r>
       <r>    1.4360    0.0000 </r>
       <r>    1.4668    0.0000 </r>
       <r>    1.4713    0.0000 </r>
       <r>    1.4769    0.0000 </r>
       <r>    1.5899    0.0000 </r>
       <r>    1.5936    0.0000 </r>
       <r>    1.6351    0.0000 </r>
       <r>    1.6520    0.0000 </r>
       <r>    1.6972    0.0000 </r>
       <r>    1.6978    0.0000 </r>
       <r>    1.7508    0.0000 </r>
       <r>    1.7527    0.0000 </r>
       <r>    1.7753    0.0000 </r>
       <r>    1.8092    0.0000 </r>
      </set>
      <set comment="kpoint 2">
       <r>  -26.2760    1.0000 </r>
       <r>  -26.2754    1.0000 </r>
       <r>  -26.1440    1.0000 </r>
       <r>  -26.1429    1.0000 </r>
       <r>  -26.1410    1.0000 </r>
       <r>  -26.1403    1.0000 </r>
       <r>  -24.2802    1.0000 </r>
       <r>  -24.2802    1.0000 </r>
       <r>  -24.2791    1.0000 </r>
       <r>  -24.2787    1.0000 </r>
       <r>  -24.2563    1.0000 </r>
       <r>  -24.2561    1.0000 </r>
       <r>  -22.6796    1.0000 </r>
       <r>  -22.6795    1.0000 </r>
       <r>  -22.6793    1.0000 </r>
       <r>  -22.6779    1.0000 </r>
       <r>  -22.6764    1.0000 </r>
       <r>  -22.6761    1.0000 </r>
       <r>  -21.8334    1.0000 </r>
       <r>  -21.8320    1.0000 </r>
       <r>  -21.8070    1.0000 </r>
       <r>  -21.8057    1.0000 </r>
       <r>  -21.7703    1.0000 </r>
       <r>  -21.7691    1.0000 </r>
       <r>  -21.1865    1.0000 </r>
       <r>  -21.0859    1.0000 </r>
       <r>  -21.0853    1.0000 </r>
       <r>  -20.7125    1.0000 </r>
       <r>  -20.6374    1.0000 </r>
       <r>  -20.6367    1.0000 </r>
       <r>  -19.3244    1.0000 </r>
       <r>  -19.2932    1.0000 </r>
       <r>  -19.2149    1.0000 </r>
       <r>  -19.2144    1.0000 </r>
       <r>  -19.0373    1.0000 </r>
       <r>  -19.0363    1.0000 </r>
       <r>  -18.9593    1.0000 </r>
       <r>  -18.7999    1.0000 </r>
       <r>  -18.7996    1.0000 </r>
       <r>  -18.1691    1.0000 </r>
       <r>  -18.1685    1.0000 </r>
       <r>  -17.6394    1.0000 </r>
       <r>  -17.6353    1.0000 </r>
       <r>  -17.5525    1.0000 </r>
       <r>  -17.4578    1.0000 </r>
       <r>  -17.1734    1.0000 </r>
       <r>  -17.1159    1.0000 </r>
       <r>  -17.1149    1.0000 </r>
       <r>  -16.2704    1.0000 </r>
       <r>  -16.2693    1.0000 </r>
       <r>  -16.0187    1.0000 </r>
       <r>  -16.0092    1.0000 </r>
       <r>  -15.8879    1.0000 </r>
       <r>  -15.8858    1.0000 </r>
       <r>  -15.5553    1.0000 </r>
       <r>  -15.5496    1.0000 </r>
       <r>  -15.5256    1.0000 </r>
       <r>  -15.5250    1.0000 </r>
       <r>  -15.5224    1.0000 </r>
       <r>  -15.5217    1.0000 </r>
       <r>  -15.2778    1.0000 </r>
       <r>  -15.1865    1.0000 </r>
       <r>  -15.1839    1.0000 </r>
       <r>  -15.0529    1.0000 </r>
       <r>  -14.5799    1.0000 </r>
       <r>  -14.5784    1.0000 </r>
       <r>  -14.4178    1.0000 </r>
       <r>  -14.1616    1.0000 </r>
       <r>  -14.1611    1.0000 </r>
       <r>  -14.0320    1.0000 </r>
       <r>  -13.9622    1.0000 </r>
       <r>  -13.9603    1.0000 </r>
       <r>  -13.4522    1.0000 </r>
       <r>  -13.3847    1.0000 </r>
       <r>  -13.3544    1.0000 </r>
       <r>  -13.3540    1.0000 </r>
       <r>  -13.2994    1.0000 </r>
       <r>  -13.2985    1.0000 </r>
       <r>  -13.0318    1.0000 </r>
       <r>  -12.9384    1.0000 </r>
       <r>  -12.9371    1.0000 </r>
       <r>  -12.9006    1.0000 </r>
       <r>  -12.8997    1.0000 </r>
       <r>  -12.8610    1.0000 </r>
       <r>  -12.6492    1.0000 </r>
       <r>  -12.5648    1.0000 </r>
       <r>  -12.5643    1.0000 </r>
       <r>  -12.3338    1.0000 </r>
       <r>  -12.3326    1.0000 </r>
       <r>  -12.3294    1.0000 </r>
       <r>  -12.1435    1.0000 </r>
       <r>  -12.1420    1.0000 </r>
       <r>  -11.9263    1.0000 </r>
       <r>  -11.8609    1.0000 </r>
       <r>  -11.8587    1.0000 </r>
       <r>  -11.7532    1.0000 </r>
       <r>  -11.5303    1.0000 </r>
       <r>  -11.4017    1.0000 </r>
       <r>  -11.4011    1.0000 </r>
[...]
       <r>   -21.2944     0.0000    48.0000 </r>
       <r>   -21.1914     0.8482    48.0874 </r>
       <r>   -21.0884    35.1131    52.4168 </r>
       <r>   -20.9854     0.0000    54.0000 </r>
       <r>   -20.8824     0.0000    54.0000 </r>
       <r>   -20.7794     0.0000    54.0000 </r>
       <r>   -20.6764    16.4296    55.6923 </r>
       <r>   -20.5734    28.1544    60.0000 </r>
       <r>   -20.4704     0.0000    60.0000 </r>
       <r>   -20.3674     0.0000    60.0000 </r>
       <r>   -20.2644     0.0000    60.0000 </r>
       <r>   -20.1614     0.0000    60.0000 </r>
       <r>   -20.0584     0.0000    60.0000 </r>
       <r>   -19.9554     0.0000    60.0000 </r>
       <r>   -19.8524     0.0000    60.0000 </r>
       <r>   -19.7494     0.0000    60.0000 </r>
       <r>   -19.6464     0.0000    60.0000 </r>
       <r>   -19.5434     0.0000    60.0000 </r>
       <r>   -19.4404     0.0000    60.0000 </r>
       <r>   -19.3374     0.1776    60.0183 </r>
       <r>   -19.2344    24.8122    64.0892 </r>
       <r>   -19.1314    19.1190    68.3027 </r>
       <r>   -19.0284    15.1532    70.3609 </r>
       <r>   -18.9254    17.1585    72.6007 </r>
       <r>   -18.8224    36.8133    76.6585 </r>
       <r>   -18.7194     0.0000    78.0000 </r>
       <r>   -18.6164     0.0000    78.0000 </r>
       <r>   -18.5134     0.0000    78.0000 </r>
       <r>   -18.4104     0.0000    78.0000 </r>
       <r>   -18.3074     0.0000    78.0000 </r>
       <r>   -18.2043     0.0000    78.0000 </r>
       <r>   -18.1013    26.2963    80.7086 </r>
       <r>   -17.9983     9.3531    81.7967 </r>
       <r>   -17.8953     8.8663    83.0133 </r>
       <r>   -17.7923     2.5821    83.3660 </r>
       <r>   -17.6893     9.5082    84.4127 </r>
       <r>   -17.5863     8.4139    86.0000 </r>
       <r>   -17.4833     3.7693    86.3882 </r>
       <r>   -17.3803    14.9544    88.0404 </r>
       <r>   -17.2773    13.6720    90.0750 </r>
       <r>   -17.1743    19.6137    92.6870 </r>
       <r>   -17.0713    25.9805    95.8761 </r>
       <r>   -16.9683     0.0000    96.0000 </r>
       <r>   -16.8653     0.0000    96.0000 </r>
       <r>   -16.7623     0.0000    96.0000 </r>
       <r>   -16.6593     0.0000    96.0000 </r>
       <r>   -16.5563     0.0000    96.0000 </r>
       <r>   -16.4533     0.0000    96.0000 </r>
       <r>   -16.3503     0.0000    96.0000 </r>
       <r>   -16.2473    23.7217    98.4434 </r>
       <r>   -16.1443     7.4046    99.3960 </r>
       <r>   -16.0413     8.3192   100.5569 </r>
       <r>   -15.9383    38.7282   105.3894 </r>
       <r>   -15.8353    23.6241   108.0000 </r>
       <r>   -15.7323     0.0000   108.0000 </r>
       <r>   -15.6293     0.0000   108.0000 </r>
       <r>   -15.5263    68.0601   115.0103 </r>
       <r>   -15.4233     0.0000   120.0000 </r>
       <r>   -15.3203     0.0000   120.0000 </r>
       <r>   -15.2173    31.4811   123.2426 </r>
       <r>   -15.1143    15.2079   126.0000 </r>
       <r>   -15.0113     4.5431   126.4679 </r>
       <r>   -14.9083     4.0734   127.0196 </r>
       <r>   -14.8053     7.2062   128.1423 </r>
       <r>   -14.7023     7.8331   129.1402 </r>
       <r>   -14.5993     4.1985   129.6991 </r>
       <r>   -14.4963    16.5040   132.0000 </r>
       <r>   -14.3933     3.6486   132.3758 </r>
       <r>   -14.2903     7.7663   133.3666 </r>
       <r>   -14.1873    16.3421   135.6166 </r>
       <r>   -14.0843     5.5005   138.0000 </r>
       <r>   -13.9813    24.1306   140.4855 </r>
       <r>   -13.8783    11.9707   144.0000 </r>
       <r>   -13.7753     0.0000   144.0000 </r>
       <r>   -13.6722     0.0000   144.0000 </r>
       <r>   -13.5692     0.0000   144.0000 </r>
       <r>   -13.4662     0.0963   144.0099 </r>
       <r>   -13.3632    33.0384   148.2697 </r>
       <r>   -13.2602    52.7494   156.0000 </r>
       <r>   -13.1572     0.0000   156.0000 </r>
       <r>   -13.0542     0.0017   156.0002 </r>
       <r>   -12.9512    29.3906   159.1607 </r>
       <r>   -12.8482    58.1355   167.9881 </r>
       <r>   -12.7452     0.0000   168.0000 </r>
       <r>   -12.6422     5.6129   168.5781 </r>
       <r>   -12.5392    39.8030   173.9998 </r>
       <r>   -12.4362     0.0000   174.0000 </r>
       <r>   -12.3332    30.6793   177.1600 </r>
       <r>   -12.2302     0.0000   180.0000 </r>
       <r>   -12.1272    24.4357   182.5169 </r>
       <r>   -12.0242    17.6537   184.7184 </r>
       <r>   -11.9212     7.9909   185.9564 </r>
       <r>   -11.8182    24.7488   188.5492 </r>
       <r>   -11.7152    31.3906   192.0000 </r>
       <r>   -11.6122     0.0000   192.0000 </r>
       <r>   -11.5092    10.0049   193.0305 </r>
       <r>   -11.4062    25.1174   196.4872 </r>
       <r>   -11.3032   107.9957   209.1238 </r>
       <r>   -11.2002     0.0000   210.0000 </r>
       <r>   -11.0972     0.4934   210.0508 </r>
       <r>   -10.9942    33.6546   216.0000 </r>
       <r>   -10.8912     2.4241   216.2497 </r>
       <r>   -10.7882    49.0874   221.8228 </r>
       <r>   -10.6852     0.0000   222.0000 </r>
       <r>   -10.5822     0.0001   222.0000 </r>
       <r>   -10.4792    42.0077   226.3269 </r>
       <r>   -10.3762     3.6207   228.0063 </r>
       <r>   -10.2732    41.2248   232.8798 </r>
       <r>   -10.1702     2.9118   234.0000 </r>
       <r>   -10.0672    10.0610   235.0363 </r>
       <r>    -9.9642    35.5968   240.0000 </r>
       <r>    -9.8612    48.2981   244.9748 </r>
       <r>    -9.7582    18.8307   247.1063 </r>
       <r>    -9.6552    25.3333   251.3427 </r>
       <r>    -9.5522    37.3189   259.2442 </r>
       <r>    -9.4492    30.7449   265.2669 </r>
       <r>    -9.3462    15.4756   267.2607 </r>
       <r>    -9.2431    21.8402   269.9163 </r>
       <r>    -9.1401    24.2556   272.4984 </r>
       <r>    -9.0371    23.3782   276.0080 </r>
       <r>    -8.9341    15.1824   278.9972 </r>
       <r>    -8.8311    46.6463   284.3380 </r>
       <r>    -8.7281    10.1265   287.9764 </r>
       <r>    -8.6251     0.0000   288.0000 </r>
       <r>    -8.5221     5.7961   288.5970 </r>
       <r>    -8.4191    42.1746   294.0108 </r>
       <r>    -8.3161    18.4470   297.1668 </r>
       <r>    -8.2131    13.9851   299.1072 </r>
       <r>    -8.1101     7.2914   300.1177 </r>
       <r>    -8.0071    50.1209   307.7293 </r>
       <r>    -7.9041    66.7583   317.1430 </r>
       <r>    -7.8011     0.0000   318.0000 </r>
       <r>    -7.6981     0.0000   318.0000 </r>
       <r>    -7.5951     0.0000   318.0000 </r>
       <r>    -7.4921    33.2102   321.4207 </r>
       <r>    -7.3891    51.6548   329.3206 </r>
       <r>    -7.2861     0.0000   330.0000 </r>
       <r>    -7.1831     0.0000   330.0000 </r>
       <r>    -7.0801     0.0000   330.0000 </r>
       <r>    -6.9771    31.9393   333.2898 </r>
       <r>    -6.8741    73.4289   341.9967 </r>
       <r>    -6.7711     0.0000   342.0000 </r>
       <r>    -6.6681     0.0000   342.0000 </r>
       <r>    -6.5651     0.6562   342.0676 </r>
       <r>    -6.4621    76.0800   353.8366 </r>
       <r>    -6.3591     0.0000   354.0000 </r>
       <r>    -6.2561     0.0000   354.0000 </r>
       <r>    -6.1531    11.8493   355.2205 </r>
       <r>    -6.0501    17.1436   357.9992 </r>
       <r>    -5.9471    14.7880   359.5232 </r>
       <r>    -5.8441    33.4456   364.7450 </r>
       <r>    -5.7411     8.5473   366.2471 </r>
       <r>    -5.6381    33.9788   372.0000 </r>
       <r>    -5.5351     0.0000   372.0000 </r>
       <r>    -5.4321     0.0000   372.0000 </r>
       <r>    -5.3291    58.0457   377.9788 </r>
       <r>    -5.2261    39.7821   383.0977 </r>
       <r>    -5.1231     0.0000   384.0000 </r>
       <r>    -5.0201     0.0000   384.0000 </r>
       <r>    -4.9171     2.7085   384.2790 </r>
       <r>    -4.8141    68.6370   394.1366 </r>
       <r>    -4.7110     0.0000   396.0000 </r>
       <r>    -4.6080     0.0000   396.0000 </r>
       <r>    -4.5050     0.4793   396.0494 </r>
       <r>    -4.4020    43.2554   401.1221 </r>
       <r>    -4.2990     0.0000   402.0000 </r>
       <r>    -4.1960     0.0000   402.0000 </r>
       <r>    -4.0930     0.0000   402.0000 </r>
       <r>    -3.9900     0.0000   402.0000 </r>
       <r>    -3.8870     0.0000   402.0000 </r>
       <r>    -3.7840     0.0000   402.0000 </r>
       <r>    -3.6810     0.0000   402.0000 </r>
       <r>    -3.5780     0.0000   402.0000 </r>
       <r>    -3.4750     0.0000   402.0000 </r>
       <r>    -3.3720     0.0000   402.0000 </r>
       <r>    -3.2690     0.0000   402.0000 </r>
       <r>    -3.1660     0.0000   402.0000 </r>
       <r>    -3.0630     0.0000   402.0000 </r>
       <r>    -2.9600     0.0000   402.0000 </r>
       <r>    -2.8570     0.0000   402.0000 </r>
       <r>    -2.7540     0.0000   402.0000 </r>
       <r>    -2.6510     0.0000   402.0000 </r>
       <r>    -2.5480     0.0000   402.0000 </r>
       <r>    -2.4450     0.0000   402.0000 </r>
       <r>    -2.3420     0.0000   402.0000 </r>
       <r>    -2.2390     0.0000   402.0000 </r>
       <r>    -2.1360     0.0000   402.0000 </r>
       <r>    -2.0330     0.0000   402.0000 </r>
       <r>    -1.9300     0.0000   402.0000 </r>
       <r>    -1.8270    31.6395   405.2589 </r>
       <r>    -1.7240     0.0000   406.0000 </r>
       <r>    -1.6210    38.3938   409.9546 </r>
       <r>    -1.5180    13.2676   414.0000 </r>
       <r>    -1.4150     0.0000   414.0000 </r>
       <r>    -1.3120    35.3682   417.6430 </r>
       <r>    -1.2090    39.1107   422.0285 </r>
       <r>    -1.1060     9.6933   423.9985 </r>
       <r>    -1.0030    21.0739   426.9042 </r>
       <r>    -0.9000    34.2345   431.0263 </r>
       <r>    -0.7970     0.0000   432.0000 </r>
       <r>    -0.6940    42.1446   436.3410 </r>
       <r>    -0.5910     6.7958   438.0000 </r>
       <r>    -0.4880     0.0000   438.0000 </r>
       <r>    -0.3850     5.3084   438.5468 </r>
       <r>    -0.2820    31.7141   444.0000 </r>
       <r>    -0.1789    27.0024   446.7813 </r>
       <r>    -0.0759     7.1195   448.0000 </r>
       <r>     0.0271    22.1354   450.2800 </r>
       <r>     0.1301    12.3254   451.8362 </r>
       <r>     0.2331    31.8157   455.4771 </r>
       <r>     0.3361     4.5879   456.4726 </r>
       <r>     0.4391    55.1430   462.4465 </r>
       <r>     0.5421    33.6610   468.0006 </r>
       <r>     0.6451    52.0896   474.8321 </r>
       <r>     0.7481    12.1617   476.8194 </r>
       <r>     0.8511    15.2552   478.9380 </r>
       <r>     0.9541    60.9195   486.4083 </r>
       <r>     1.0571    47.9448   492.7051 </r>
       <r>     1.1601    34.3513   497.9384 </r>
       <r>     1.2631    46.4504   504.1512 </r>
       <r>     1.3661    45.6716   510.2044 </r>
       <r>     1.4691    58.5735   518.5000 </r>
       <r>     1.5721    42.7770   525.5062 </r>
       <r>     1.6751    65.3499   534.1980 </r>
       <r>     1.7781    55.4970   541.6831 </r>
       <r>     1.8811    10.6787   544.0000 </r>
       <r>     1.9841     0.0000   544.0000 </r>
       <r>     2.0871     0.0000   544.0000 </r>
       <r>     2.1901     0.0000   544.0000 </r>
       <r>     2.2931     0.0000   544.0000 </r>
       <r>     2.3961     0.0000   544.0000 </r>
       <r>     2.4991     0.0000   544.0000 </r>
       <r>     2.6021     0.0000   544.0000 </r>
       <r>     2.7051     0.0000   544.0000 </r>
       <r>     2.8081     0.0000   544.0000 </r>
       <r>     2.9111     0.0000   544.0000 </r>
       <r>     3.0141     0.0000   544.0000 </r>
       <r>     3.1171     0.0000   544.0000 </r>
       <r>     3.2201     0.0000   544.0000 </r>
      </set>
     </set>
    </array>
   </total>
  </dos>
 </calculation>
 <structure name="finalpos" >
  <crystal>
   <varray name="basis" >
    <v>      23.13571384       0.00041126       0.00000000 </v>
    <v>     -11.56749410      20.03516058       0.00000000 </v>
    <v>       0.00000000       0.00000000      20.00000000 </v>
   </varray>
   <i name="volume">   9270.64998212 </i>
   <varray name="rec_basis" >
    <v>       0.04322277       0.02495509       0.00000000 </v>
    <v>      -0.00000089       0.04991174       0.00000000 </v>
    <v>       0.00000000       0.00000000       0.05000000 </v>
   </varray>
  </crystal>
  <varray name="positions" >
   <v>       0.63027808       0.26517984       0.51436920 </v>
   <v>       0.64134646       0.40117646       0.51736162 </v>
   <v>       0.76604218       0.39063759       0.51664161 </v>
   <v>       0.39471632       0.77232104       0.51811938 </v>
   <v>       0.38384512       0.63650796       0.51577320 </v>
   <v>       0.25887492       0.64721198       0.51572720 </v>
   <v>       0.52970956       0.16127105       0.50704739 </v>
   <v>       0.49635946       0.09184234       0.50360799 </v>
   <v>       0.49798307       0.20355500       0.50966933 </v>
   <v>       0.49736969       0.23375344       0.57194761 </v>
   <v>       0.70983533       0.20489732       0.51226441 </v>
   <v>       0.53059691       0.05569978       0.50352865 </v>
   <v>       0.60083495       0.09310571       0.50578533 </v>
   <v>       0.63582877       0.16256773       0.50941681 </v>
   <v>       0.59997623       0.19700449       0.51061070 </v>
   <v>       0.74901176       0.22621854       0.45417529 </v>
   <v>       0.86975653       0.39375983       0.50844175 </v>
   <v>       0.93913974       0.42963809       0.50433159 </v>
   <v>       0.50129715       0.32137116       0.51320302 </v>
   <v>       0.82734461       0.31975490       0.51026142 </v>
   <v>       0.79682004       0.28797522       0.57210846 </v>
   <v>       0.49867761       0.43038204       0.50659568 </v>
   <v>       0.53314361       0.39541492       0.51093884 </v>
   <v>       0.60342807       0.43138259       0.51302262 </v>
   <v>       0.83419725       0.42843116       0.51260527 </v>
   <v>       0.48261873       0.28245866       0.45490470 </v>
   <v>       0.63792901       0.50164322       0.50936998 </v>
   <v>       0.60183411       0.53492180       0.50508734 </v>
   <v>       0.42325416       0.50263184       0.50416594 </v>
   <v>       0.38719124       0.53597902       0.50797775 </v>
   <v>       0.71195998       0.53351583       0.51173487 </v>
   <v>       0.82672695       0.53070142       0.51425779 </v>
   <v>       0.74349490       0.53474790       0.57373657 </v>
   <v>       0.31315663       0.50422502       0.51012399 </v>
   <v>       0.19845459       0.50721918       0.51269814 </v>
   <v>       0.28165739       0.50304307       0.57213873 </v>
   <v>       0.53146898       0.50062024       0.50437877 </v>
   <v>       0.49363214       0.53687491       0.50419728 </v>
   <v>       0.97542656       0.49999997       0.50431393 </v>
   <v>       0.93821512       0.53301166       0.50723233 </v>
   <v>       0.86878322       0.49873369       0.51141096 </v>
   <v>       0.04950442       0.53763816       0.50405171 </v>
   <v>       0.15626392       0.53906422       0.51014401 </v>
   <v>       0.08681037       0.50469673       0.50631090 </v>
   <v>       0.80584325       0.54893193       0.45609547 </v>
   <v>       0.21931835       0.48899428       0.45452161 </v>
   <v>       0.52854621       0.94546819       0.50484229 </v>
   <v>       0.49523882       0.87609971       0.50935675 </v>
   <v>       0.08570765       0.60800030       0.50427951 </v>
   <v>       0.15509743       0.64398024       0.50808446 </v>
   <v>       0.52702601       0.83382837       0.51140492 </v>
   <v>       0.52391896       0.71609813       0.51362170 </v>
   <v>       0.52864419       0.80356792       0.57329485 </v>
   <v>       0.19738788       0.71798988       0.51043608 </v>
   <v>       0.31507160       0.83262336       0.51355271 </v>
   <v>       0.22738899       0.74936487       0.57258643 </v>
   <v>       0.49430552       0.98160129       0.50407150 </v>
   <v>       0.42499695       0.84042959       0.51337701 </v>
   <v>       0.38909919       0.87481154       0.51119769 </v>
   <v>       0.42406884       0.94421645       0.50645997 </v>
   <v>       0.42173121       0.60623130       0.51188480 </v>
   <v>       0.49201780       0.64208600       0.51077275 </v>
   <v>       0.52646622       0.60709241       0.50686310 </v>
   <v>       0.19073630       0.60936176       0.51170672 </v>
   <v>       0.54192520       0.75518404       0.45545863 </v>
   <v>       0.27628585       0.81188430       0.45517846 </v>
   <v>       0.67888791       0.28597822       0.51804467 </v>
   <v>       0.44206558       0.06610720       0.50115862 </v>
   <v>       0.50061124       0.16432915       0.63299296 </v>
   <v>       0.50447695       0.23241556       0.67324759 </v>
   <v>       0.63024315       0.06820398       0.50594214 </v>
   <v>       0.73188790       0.19939482       0.40688412 </v>
   <v>       0.61346796       0.35253658       0.52064236 </v>
   <v>       0.39470555       0.44835868       0.50120928 </v>
   <v>       0.74528712       0.41847560       0.52055665 </v>
   <v>       0.96470768       0.40095837       0.50111739 </v>
   <v>       0.86556616       0.36014532       0.63390366 </v>
   <v>       0.79755161       0.29535750       0.67347233 </v>
   <v>       0.44436997       0.40092636       0.50610289 </v>
   <v>       0.06183647       0.45037925       0.50627381 </v>
   <v>       0.47257466       0.29992752       0.40802335 </v>
   <v>       0.63036102       0.58919895       0.50228161 </v>
   <v>       0.67144642       0.53174747       0.63549618 </v>
   <v>       0.73614043       0.52834236       0.67512097 </v>
   <v>       0.35366190       0.50585324       0.63381450 </v>
   <v>       0.28909063       0.50941374       0.67352006 </v>
   <v>       0.96324893       0.58733124       0.50735976 </v>
   <v>       0.83292590       0.55880926       0.40895201 </v>
   <v>       0.19220765       0.47909197       0.40739739 </v>
   <v>       0.34608584       0.75160681       0.52144419 </v>
   <v>       0.58280727       0.97116974       0.50187093 </v>
   <v>       0.41162426       0.68513337       0.51938772 </v>
   <v>       0.27964650       0.61936121       0.51922083 </v>
   <v>       0.06005942       0.63662079       0.50148122 </v>
   <v>       0.52647003       0.87299341       0.63506156 </v>
   <v>       0.52332315       0.80507717       0.67474494 </v>
   <v>       0.15800853       0.67716620       0.63389518 </v>
   <v>       0.22583899       0.74164510       0.67394634 </v>
   <v>       0.39461924       0.96907803       0.50570343 </v>
   <v>       0.58077001       0.63651314       0.50706012 </v>
   <v>       0.55155613       0.73794897       0.40820905 </v>
   <v>       0.29378599       0.83906096       0.40811764 </v>
   <v>       0.49208845       0.20323798       0.63191755 </v>
   <v>       0.73564326       0.23423661       0.57153588 </v>
   <v>       0.48560945       0.22588447       0.45331098 </v>
   <v>       0.50517387       0.29506144       0.57199786 </v>
   <v>       0.82700942       0.31254111       0.63235929 </v>
   <v>       0.80543228       0.28593795       0.45337201 </v>
   <v>       0.79711952       0.52712696       0.57333806 </v>
   <v>       0.71894890       0.54052192       0.63394746 </v>
   <v>       0.22811563       0.51079798       0.57174830 </v>
   <v>       0.30618069       0.49715615       0.63232566 </v>
   <v>       0.74614825       0.54563652       0.45504879 </v>
   <v>       0.27898348       0.49219973       0.45344738 </v>
   <v>       0.52075279       0.74220524       0.57281124 </v>
   <v>       0.53526857       0.83427198       0.63345019 </v>
   <v>       0.28867911       0.80289270       0.57251579 </v>
   <v>       0.19664959       0.72474407       0.63262381 </v>
   <v>       0.53878694       0.81166657       0.45460090 </v>
   <v>       0.21980040       0.75226235       0.45383727 </v>
  </varray>
 </structure>
</modeling>
