<?xml version="1.0" encoding="ISO-8859-1"?>
<modeling>
 <generator>
  <i name="program" type="string">vasp </i>
  <i name="version" type="string">5.4.4.18Apr17-6-g9f103f2a35  </i>
  <i name="subversion" type="string">(build Jun 07 2020 16:50:00) complex            parallel </i>
  <i name="platform" type="string">LinuxIFC </i>
  <i name="date" type="string">2023 02 16 </i>
  <i name="time" type="string">02:03:49 </i>
 </generator>
 <incar>
  <i type="string" name="SYSTEM">Simulation for cell shape cell volume r</i>
  <i type="int" name="ISTART">     1</i>
  <i type="string" name="PREC">high</i>
  <i type="string" name="ALGO">48</i>
  <i type="int" name="ICHARG">    11</i>
  <i type="int" name="NELM">   200</i>
  <i type="int" name="IBRION">    -1</i>
  <i name="EDIFF">      0.00001000</i>
  <i name="EDIFFG">     -0.01000000</i>
  <i type="int" name="NSW">     0</i>
  <i type="int" name="ISIF">     2</i>
  <i name="ENCUT">    500.00000000</i>
  <i name="POTIM">      0.30000000</i>
  <i type="string" name="LREAL">A</i>
  <i type="int" name="ISMEAR">     0</i>
  <i name="SIGMA">      0.01000000</i>
  <i type="int" name="NWRITE">     0</i>
  <i type="logical" name="LWAVE"> F  </i>
  <i type="logical" name="LCHARG"> F  </i>
  <v type="int" name="KPOINT_BSE">    -1     0     0     0</v>
  <i type="int" name="NELM">   200</i>
  <i type="string" name="GGA">PE</i>
 </incar>
 <structure name="primitive_cell" >
  <crystal>
   <varray name="basis" >
    <v>      21.88744302       0.02567038       0.00000000 </v>
    <v>     -10.92150507      18.93056993       0.00000000 </v>
    <v>       0.00000000       0.00000000      20.00000000 </v>
   </varray>
   <i name="volume">   8292.44259514 </i>
   <varray name="rec_basis" >
    <v>       0.04565740       0.02634086       0.00000000 </v>
    <v>      -0.00006191       0.05278889       0.00000000 </v>
    <v>       0.00000000       0.00000000       0.05000000 </v>
   </varray>
  </crystal>
  <varray name="positions" >
   <v>       0.26327977      -0.38459820      -0.45700705 </v>
   <v>       0.28646521      -0.31235657      -0.45641184 </v>
   <v>       0.31309466      -0.40703000      -0.45640099 </v>
   <v>       0.18724136      -0.44207510      -0.46173742 </v>
   <v>       0.29152567      -0.46413646      -0.45627532 </v>
   <v>       0.25094763      -0.29076274      -0.45616828 </v>
   <v>       0.16903053       0.49569767      -0.45153496 </v>
   <v>       0.35856573      -0.26252508      -0.45637858 </v>
   <v>       0.14119462      -0.41887159      -0.48011313 </v>
   <v>       0.38522252      -0.35813799      -0.45633129 </v>
   <v>       0.16036558      -0.36599295      -0.48095414 </v>
   <v>       0.40746155      -0.28590139      -0.45585559 </v>
   <v>       0.37709292      -0.18630244      -0.46054236 </v>
   <v>       0.07060870      -0.46041227      -0.49957892 </v>
   <v>       0.36715041      -0.48026638      -0.47758020 </v>
   <v>       0.44279449      -0.37678645      -0.46038937 </v>
   <v>       0.46446405      -0.25045457      -0.45538003 </v>
   <v>       0.33290663      -0.16819317      -0.45110824 </v>
   <v>       0.41988443      -0.44631454      -0.47758830 </v>
   <v>       0.05016095       0.47837594       0.46919428 </v>
   <v>      -0.49507566      -0.33261651      -0.45065770 </v>
   <v>       0.02346416      -0.43529575      -0.48871557 </v>
   <v>       0.44657139      -0.13994724      -0.47754102 </v>
   <v>       0.48035548      -0.15903153      -0.47734489 </v>
   <v>       0.03997032      -0.38558994      -0.46225927 </v>
   <v>       0.46164370      -0.47524603      -0.49717670 </v>
   <v>      -0.01665298       0.44200285       0.44901103 </v>
   <v>      -0.04302984      -0.47072465       0.49060667 </v>
   <v>       0.38898103       0.42011472      -0.45714726 </v>
   <v>       0.47594155      -0.06915860      -0.49684483 </v>
   <v>       0.43784352       0.45296621      -0.48480382 </v>
   <v>      -0.06396638       0.46789035       0.45926059 </v>
   <v>      -0.47820318      -0.43479753       0.47006704 </v>
   <v>       0.43596067      -0.04847575       0.47079641 </v>
   <v>      -0.03759957       0.37520136       0.40916877 </v>
   <v>      -0.01029245       0.37713772       0.35514499 </v>
   <v>      -0.45217706      -0.02208825      -0.48467244 </v>
   <v>      -0.41971402      -0.03888472      -0.45731890 </v>
   <v>      -0.10183769       0.31090978       0.48555383 </v>
   <v>      -0.09332163       0.31463258       0.43540653 </v>
   <v>       0.47351785       0.42198682       0.49454618 </v>
   <v>      -0.44150221      -0.46506574       0.44995251 </v>
   <v>      -0.13378311       0.42774946       0.43823475 </v>
   <v>       0.46684969       0.01854837       0.45085514 </v>
   <v>      -0.14866080       0.37685653       0.42660130 </v>
   <v>      -0.10662532       0.26868353       0.41123971 </v>
   <v>      -0.46611961       0.46217276       0.46167862 </v>
   <v>      -0.42061086       0.04459531       0.49479576 </v>
   <v>       0.39758604       0.01276902       0.35561755 </v>
   <v>       0.42196954       0.03989199       0.40994961 </v>
   <v>      -0.37582484      -0.41945059       0.40872198 </v>
   <v>      -0.46028797       0.06574128       0.46234367 </v>
   <v>      -0.37922536      -0.39489700       0.35469823 </v>
   <v>      -0.18494159       0.44729974       0.43319926 </v>
   <v>      -0.17301071      -0.49151786       0.43529058 </v>
   <v>       0.42064136       0.10404308       0.48587860 </v>
   <v>       0.41682586       0.09575997       0.43569272 </v>
   <v>      -0.42576729       0.43261719       0.44050768 </v>
   <v>      -0.30938376      -0.41728163       0.48397985 </v>
   <v>      -0.31437375      -0.41364782       0.43383756 </v>
   <v>      -0.23771491       0.29746157       0.43000905 </v>
   <v>       0.38473714       0.10924205       0.41076124 </v>
   <v>      -0.43018337       0.13565783       0.44124489 </v>
   <v>      -0.37519846       0.46867097       0.42826891 </v>
   <v>      -0.25900693       0.38570219       0.42731308 </v>
   <v>       0.49372142       0.31281999       0.43723045 </v>
   <v>      -0.46588419       0.15051358       0.42828968 </v>
   <v>      -0.27661198       0.31483257       0.42802958 </v>
   <v>      -0.26925884      -0.38095835       0.40867939 </v>
   <v>      -0.44522496       0.36194879       0.43491668 </v>
   <v>      -0.29570619       0.45872547       0.42803757 </v>
   <v>      -0.35958688       0.18679184       0.43674750 </v>
   <v>      -0.31038522       0.17496690       0.44051460 </v>
   <v>      -0.31301874       0.40242222       0.42703826 </v>
   <v>      -0.34719237       0.26082020       0.42901469 </v>
   <v>      -0.38375176       0.34928921       0.42809338 </v>
   <v>      -0.45649185       0.23969484       0.43096042 </v>
   <v>      -0.40033383       0.27855043       0.42865294 </v>
  </varray>
 </structure>
 <varray name="primitive_index" >
  <v type="int" >        1 </v>
  <v type="int" >        5 </v>
  <v type="int" >        2 </v>
  <v type="int" >        6 </v>
  <v type="int" >       60 </v>
  <v type="int" >       59 </v>
  <v type="int" >       35 </v>
  <v type="int" >       24 </v>
  <v type="int" >       55 </v>
  <v type="int" >        3 </v>
  <v type="int" >       76 </v>
  <v type="int" >        4 </v>
  <v type="int" >       25 </v>
  <v type="int" >       31 </v>
  <v type="int" >       78 </v>
  <v type="int" >        7 </v>
  <v type="int" >       58 </v>
  <v type="int" >       34 </v>
  <v type="int" >       57 </v>
  <v type="int" >       46 </v>
  <v type="int" >       36 </v>
  <v type="int" >       30 </v>
  <v type="int" >       53 </v>
  <v type="int" >       74 </v>
  <v type="int" >       75 </v>
  <v type="int" >       33 </v>
  <v type="int" >       19 </v>
  <v type="int" >       54 </v>
  <v type="int" >       77 </v>
  <v type="int" >       29 </v>
  <v type="int" >       32 </v>
  <v type="int" >       18 </v>
  <v type="int" >       49 </v>
  <v type="int" >       43 </v>
  <v type="int" >       20 </v>
  <v type="int" >       41 </v>
  <v type="int" >       28 </v>
  <v type="int" >       73 </v>
  <v type="int" >       67 </v>
  <v type="int" >       47 </v>
  <v type="int" >       56 </v>
  <v type="int" >       22 </v>
  <v type="int" >       48 </v>
  <v type="int" >       16 </v>
  <v type="int" >       69 </v>
  <v type="int" >       68 </v>
  <v type="int" >       21 </v>
  <v type="int" >       52 </v>
  <v type="int" >       40 </v>
  <v type="int" >       17 </v>
  <v type="int" >       23 </v>
  <v type="int" >       15 </v>
  <v type="int" >       42 </v>
  <v type="int" >       13 </v>
  <v type="int" >       38 </v>
  <v type="int" >       64 </v>
  <v type="int" >       44 </v>
  <v type="int" >       51 </v>
  <v type="int" >       70 </v>
  <v type="int" >       50 </v>
  <v type="int" >       62 </v>
  <v type="int" >       65 </v>
  <v type="int" >       45 </v>
  <v type="int" >       72 </v>
  <v type="int" >        8 </v>
  <v type="int" >       39 </v>
  <v type="int" >       66 </v>
  <v type="int" >       12 </v>
  <v type="int" >       71 </v>
  <v type="int" >       14 </v>
  <v type="int" >       63 </v>
  <v type="int" >       27 </v>
  <v type="int" >       37 </v>
  <v type="int" >        9 </v>
  <v type="int" >       26 </v>
  <v type="int" >       10 </v>
  <v type="int" >       61 </v>
  <v type="int" >       11 </v>
 </varray>
 <kpoints>
  <generation param="listgenerated">
   <i name="divisions" type="int">      20 </i>
   <v>       0.00000000       0.00000000       0.00000000 </v>
   <v>       0.50000000       0.00000000       0.00000000 </v>
   <v>       0.33333333       0.33333333       0.00000000 </v>
   <v>       0.00000000       0.00000000       0.00000000 </v>
  </generation>
  <varray name="kpointlist" >
   <v>       0.00000000       0.00000000       0.00000000 </v>
   <v>       0.02631579       0.00000000       0.00000000 </v>
   <v>       0.05263158       0.00000000       0.00000000 </v>
   <v>       0.07894737       0.00000000       0.00000000 </v>
   <v>       0.10526316       0.00000000       0.00000000 </v>
   <v>       0.13157895       0.00000000       0.00000000 </v>
   <v>       0.15789474       0.00000000       0.00000000 </v>
   <v>       0.18421053       0.00000000       0.00000000 </v>
   <v>       0.21052632       0.00000000       0.00000000 </v>
   <v>       0.23684211       0.00000000       0.00000000 </v>
   <v>       0.26315789       0.00000000       0.00000000 </v>
   <v>       0.28947368       0.00000000       0.00000000 </v>
   <v>       0.31578947       0.00000000       0.00000000 </v>
   <v>       0.34210526       0.00000000       0.00000000 </v>
   <v>       0.36842105       0.00000000       0.00000000 </v>
   <v>       0.39473684       0.00000000       0.00000000 </v>
   <v>       0.42105263       0.00000000       0.00000000 </v>
   <v>       0.44736842       0.00000000       0.00000000 </v>
   <v>       0.47368421       0.00000000       0.00000000 </v>
   <v>       0.50000000       0.00000000       0.00000000 </v>
   <v>       0.50000000       0.00000000       0.00000000 </v>
   <v>       0.49122807       0.01754386       0.00000000 </v>
   <v>       0.48245614       0.03508772       0.00000000 </v>
   <v>       0.47368421       0.05263158       0.00000000 </v>
   <v>       0.46491228       0.07017544       0.00000000 </v>
   <v>       0.45614035       0.08771930       0.00000000 </v>
   <v>       0.44736842       0.10526316       0.00000000 </v>
   <v>       0.43859649       0.12280702       0.00000000 </v>
   <v>       0.42982456       0.14035088       0.00000000 </v>
   <v>       0.42105263       0.15789474       0.00000000 </v>
   <v>       0.41228070       0.17543860       0.00000000 </v>
   <v>       0.40350877       0.19298246       0.00000000 </v>
   <v>       0.39473684       0.21052632       0.00000000 </v>
   <v>       0.38596491       0.22807018       0.00000000 </v>
   <v>       0.37719298       0.24561404       0.00000000 </v>
   <v>       0.36842105       0.26315789       0.00000000 </v>
   <v>       0.35964912       0.28070175       0.00000000 </v>
   <v>       0.35087719       0.29824561       0.00000000 </v>
   <v>       0.34210526       0.31578947       0.00000000 </v>
   <v>       0.33333333       0.33333333       0.00000000 </v>
   <v>       0.33333333       0.33333333       0.00000000 </v>
   <v>       0.31578947       0.31578947       0.00000000 </v>
   <v>       0.29824561       0.29824561       0.00000000 </v>
   <v>       0.28070175       0.28070175       0.00000000 </v>
   <v>       0.26315789       0.26315789       0.00000000 </v>
   <v>       0.24561404       0.24561404       0.00000000 </v>
   <v>       0.22807018       0.22807018       0.00000000 </v>
   <v>       0.21052632       0.21052632       0.00000000 </v>
   <v>       0.19298246       0.19298246       0.00000000 </v>
   <v>       0.17543860       0.17543860       0.00000000 </v>
   <v>       0.15789474       0.15789474       0.00000000 </v>
   <v>       0.14035088       0.14035088       0.00000000 </v>
   <v>       0.12280702       0.12280702       0.00000000 </v>
   <v>       0.10526316       0.10526316       0.00000000 </v>
   <v>       0.08771930       0.08771930       0.00000000 </v>
   <v>       0.07017544       0.07017544       0.00000000 </v>
   <v>       0.05263158       0.05263158       0.00000000 </v>
   <v>       0.03508772       0.03508772       0.00000000 </v>
   <v>       0.01754386       0.01754386       0.00000000 </v>
   <v>       0.00000000       0.00000000       0.00000000 </v>
  </varray>
  <varray name="weights" >
   <v>       0.01666667 </v>
   <v>       0.01666667 </v>
   <v>       0.01666667 </v>
   <v>       0.01666667 </v>
   <v>       0.01666667 </v>
   <v>       0.01666667 </v>
   <v>       0.01666667 </v>
   <v>       0.01666667 </v>
   <v>       0.01666667 </v>
   <v>       0.01666667 </v>
   <v>       0.01666667 </v>
   <v>       0.01666667 </v>
   <v>       0.01666667 </v>
   <v>       0.01666667 </v>
   <v>       0.01666667 </v>
   <v>       0.01666667 </v>
   <v>       0.01666667 </v>
   <v>       0.01666667 </v>
   <v>       0.01666667 </v>
   <v>       0.01666667 </v>
   <v>       0.01666667 </v>
   <v>       0.01666667 </v>
   <v>       0.01666667 </v>
   <v>       0.01666667 </v>
   <v>       0.01666667 </v>
   <v>       0.01666667 </v>
   <v>       0.01666667 </v>
   <v>       0.01666667 </v>
   <v>       0.01666667 </v>
   <v>       0.01666667 </v>
   <v>       0.01666667 </v>
   <v>       0.01666667 </v>
   <v>       0.01666667 </v>
   <v>       0.01666667 </v>
   <v>       0.01666667 </v>
   <v>       0.01666667 </v>
   <v>       0.01666667 </v>
   <v>       0.01666667 </v>
   <v>       0.01666667 </v>
   <v>       0.01666667 </v>
   <v>       0.01666667 </v>
   <v>       0.01666667 </v>
   <v>       0.01666667 </v>
   <v>       0.01666667 </v>
   <v>       0.01666667 </v>
   <v>       0.01666667 </v>
   <v>       0.01666667 </v>
   <v>       0.01666667 </v>
   <v>       0.01666667 </v>
   <v>       0.01666667 </v>
   <v>       0.01666667 </v>
   <v>       0.01666667 </v>
   <v>       0.01666667 </v>
   <v>       0.01666667 </v>
   <v>       0.01666667 </v>
   <v>       0.01666667 </v>
   <v>       0.01666667 </v>
   <v>       0.01666667 </v>
   <v>       0.01666667 </v>
   <v>       0.01666667 </v>
  </varray>
 </kpoints>
 <parameters>
  <separator name="general" >
   <i type="string" name="SYSTEM">Simulation for cell shape cell volume r</i>
   <i type="logical" name="LCOMPAT"> F  </i>
  </separator>
  <separator name="electronic" >
   <i type="string" name="PREC">high</i>
   <i name="ENMAX">    500.00000000</i>
   <i name="ENAUG">    644.87300000</i>
   <i name="EDIFF">      0.00001000</i>
   <i type="int" name="IALGO">    38</i>
   <i type="int" name="IWAVPR">    10</i>
   <i type="int" name="NBANDS">   192</i>
   <i name="NELECT">    282.00000000</i>
   <i type="int" name="TURBO">     0</i>
   <i type="int" name="IRESTART">     0</i>
   <i type="int" name="NREBOOT">     0</i>
   <i type="int" name="NMIN">     0</i>
   <i name="EREF">      0.00000000</i>
   <separator name="electronic smearing" >
    <i type="int" name="ISMEAR">     0</i>
    <i name="SIGMA">      0.01000000</i>
    <i name="KSPACING">      0.50000000</i>
    <i type="logical" name="KGAMMA"> T  </i>
   </separator>
   <separator name="electronic projectors" >
    <i type="logical" name="LREAL"> T  </i>
    <v name="ROPT">     -0.00040000     -0.00040000     -0.00040000     -0.00040000</v>
    <i type="int" name="LMAXPAW">  -100</i>
    <i type="int" name="LMAXMIX">     2</i>
    <i type="logical" name="NLSPLINE"> F  </i>
   </separator>
   <separator name="electronic startup" >
    <i type="int" name="ISTART">     1</i>
    <i type="int" name="ICHARG">    11</i>
    <i type="int" name="INIWAV">     1</i>
   </separator>
   <separator name="electronic spin" >
    <i type="int" name="ISPIN">     1</i>
    <i type="logical" name="LNONCOLLINEAR"> F  </i>
    <v name="MAGMOM">      1.00000000      1.00000000      1.00000000      1.00000000      1.00000000      1.00000000      1.00000000      1.00000000      1.00000000      1.00000000      1.00000000      1.00000000      1.00000000      1.00000000      1.00000000      1.00000000      1.00000000      1.00000000      1.00000000      1.00000000
      1.00000000      1.00000000      1.00000000      1.00000000      1.00000000      1.00000000      1.00000000      1.00000000      1.00000000      1.00000000      1.00000000      1.00000000      1.00000000      1.00000000      1.00000000      1.00000000      1.00000000      1.00000000      1.00000000      1.00000000
      1.00000000      1.00000000      1.00000000      1.00000000      1.00000000      1.00000000      1.00000000      1.00000000      1.00000000      1.00000000      1.00000000      1.00000000      1.00000000      1.00000000      1.00000000      1.00000000      1.00000000      1.00000000      1.00000000      1.00000000
      1.00000000      1.00000000      1.00000000      1.00000000      1.00000000      1.00000000      1.00000000      1.00000000      1.00000000      1.00000000      1.00000000      1.00000000      1.00000000      1.00000000      1.00000000      1.00000000      1.00000000      1.00000000</v>
    <i name="NUPDOWN">     -1.00000000</i>
    <i type="logical" name="LSORBIT"> F  </i>
    <v name="SAXIS">      0.00000000      0.00000000      1.00000000</v>
    <i type="logical" name="LSPIRAL"> F  </i>
    <v name="QSPIRAL">      0.00000000      0.00000000      0.00000000</v>
    <i type="logical" name="LZEROZ"> F  </i>
   </separator>
   <separator name="electronic exchange-correlation" >
    <i type="logical" name="LASPH"> F  </i>
    <i type="logical" name="LMETAGGA"> F  </i>
   </separator>
   <separator name="electronic convergence" >
    <i type="int" name="NELM">   200</i>
    <i type="int" name="NELMDL">     0</i>
    <i type="int" name="NELMIN">     2</i>
    <i name="ENINI">    500.00000000</i>
    <separator name="electronic convergence detail" >
     <i type="logical" name="LDIAG"> T  </i>
     <i type="logical" name="LSUBROT"> F  </i>
     <i name="WEIMIN">      0.00000000</i>
     <i name="EBREAK">      0.00000001</i>
     <i name="DEPER">      0.30000000</i>
     <i type="int" name="NRMM">     4</i>
     <i name="TIME">      0.40000000</i>
    </separator>
   </separator>
   <separator name="electronic mixer" >
    <i name="AMIX">      0.40000000</i>
    <i name="BMIX">      1.00000000</i>
    <i name="AMIN">      0.10000000</i>
    <i name="AMIX_MAG">      1.60000000</i>
    <i name="BMIX_MAG">      1.00000000</i>
    <separator name="electronic mixer details" >
     <i type="int" name="IMIX">     4</i>
     <i type="logical" name="MIXFIRST"> F  </i>
     <i type="int" name="MAXMIX">   -45</i>
     <i name="WC">    100.00000000</i>
     <i type="int" name="INIMIX">     1</i>
     <i type="int" name="MIXPRE">     1</i>
     <i type="int" name="MREMOVE">     5</i>
    </separator>
   </separator>
   <separator name="electronic dipolcorrection" >
    <i type="logical" name="LDIPOL"> F  </i>
    <i type="logical" name="LMONO"> F  </i>
    <i type="int" name="IDIPOL">     0</i>
    <i name="EPSILON">      1.00000000</i>
    <v name="DIPOL">   -100.00000000   -100.00000000   -100.00000000</v>
    <i name="EFIELD">      0.00000000</i>
   </separator>
  </separator>
  <separator name="grids" >
   <i type="int" name="NGX">   160</i>
   <i type="int" name="NGY">   160</i>
   <i type="int" name="NGZ">   150</i>
   <i type="int" name="NGXF">   250</i>
   <i type="int" name="NGYF">   250</i>
   <i type="int" name="NGZF">   224</i>
   <i type="logical" name="ADDGRID"> F  </i>
  </separator>
  <separator name="ionic" >
   <i type="int" name="NSW">     0</i>
   <i type="int" name="IBRION">    -1</i>
   <i type="int" name="MDALGO">     0</i>
   <i type="int" name="ISIF">     2</i>
   <i name="PSTRESS">      0.00000000</i>
   <i name="EDIFFG">     -0.01000000</i>
   <i type="int" name="NFREE">     0</i>
   <i name="POTIM">      0.30000000</i>
   <i name="SMASS">     -3.00000000</i>
   <i name="SCALEE">      1.00000000</i>
  </separator>
  <separator name="ionic md" >
   <i name="TEBEG">      0.00010000</i>
   <i name="TEEND">      0.00010000</i>
   <i type="int" name="NBLOCK">     1</i>
   <i type="int" name="KBLOCK">     1</i>
   <i type="int" name="NPACO">   256</i>
   <i name="APACO">     16.00000000</i>
  </separator>
  <separator name="symmetry" >
   <i type="int" name="ISYM">     2</i>
   <i name="SYMPREC">      0.00001000</i>
  </separator>
  <separator name="dos" >
   <i type="int" name="LORBIT">     0</i>
   <v name="RWIGS">     -1.00000000     -1.00000000     -1.00000000     -1.00000000</v>
   <i type="int" name="NEDOS">   301</i>
   <i name="EMIN">     10.00000000</i>
   <i name="EMAX">    -10.00000000</i>
   <i name="EFERMI">      0.00000000</i>
  </separator>
  <separator name="writing" >
   <i type="int" name="NWRITE">     0</i>
   <i type="logical" name="LWAVE"> F  </i>
   <i type="logical" name="LDOWNSAMPLE"> F  </i>
   <i type="logical" name="LCHARG"> F  </i>
   <i type="logical" name="LPARD"> F  </i>
   <i type="logical" name="LVTOT"> F  </i>
   <i type="logical" name="LVHAR"> F  </i>
   <i type="logical" name="LELF"> F  </i>
   <i type="logical" name="LOPTICS"> F  </i>
   <v name="STM">      0.00000000      0.00000000      0.00000000      0.00000000      0.00000000      0.00000000      0.00000000</v>
  </separator>
  <separator name="performance" >
   <i type="int" name="NPAR">    16</i>
   <i type="int" name="NSIM">     4</i>
   <i type="int" name="NBLK">    -1</i>
   <i type="logical" name="LPLANE"> T  </i>
   <i type="logical" name="LSCALAPACK"> T  </i>
   <i type="logical" name="LSCAAWARE"> F  </i>
   <i type="logical" name="LSCALU"> F  </i>
   <i type="logical" name="LASYNC"> F  </i>
   <i type="logical" name="LORBITALREAL"> F  </i>
  </separator>
  <separator name="miscellaneous" >
   <i type="int" name="IDIOT">     3</i>
   <i type="int" name="ISPECIAL">     0</i>
   <i type="logical" name="LMUSIC"> F  </i>
   <v name="POMASS">     12.01100000     16.00000000     14.00100000      1.00000000</v>
   <v name="DARWINR">      0.00000000      0.00000000      0.00000000      0.00000000</v>
   <v name="DARWINV">      1.00000000      1.00000000      1.00000000      1.00000000</v>
   <i type="logical" name="LCORR"> T  </i>
  </separator>
  <i type="logical" name="GGA_COMPAT"> T  </i>
  <i type="logical" name="LBERRY"> F  </i>
  <i type="int" name="ICORELEVEL">     0</i>
  <i type="logical" name="LDAU"> F  </i>
  <i type="int" name="I_CONSTRAINED_M">     0</i>
  <separator name="electronic exchange-correlation" >
   <i type="string" name="GGA">PE</i>
   <i type="int" name="VOSKOWN">     0</i>
   <i type="logical" name="LHFCALC"> F  </i>
   <i type="string" name="PRECFOCK"></i>
   <i type="logical" name="LSYMGRAD"> F  </i>
   <i type="logical" name="LHFONE"> F  </i>
   <i type="logical" name="LRHFCALC"> F  </i>
   <i type="logical" name="LTHOMAS"> F  </i>
   <i type="logical" name="LMODELHF"> F  </i>
   <i name="ENCUT4O">     -1.00000000</i>
   <i type="int" name="EXXOEP">     0</i>
   <i type="int" name="FOURORBIT">     0</i>
   <i name="AEXX">      0.00000000</i>
   <i name="HFALPHA">      0.00000000</i>
   <i name="MCALPHA">      0.00000000</i>
   <i name="ALDAX">      1.00000000</i>
   <i name="AGGAX">      1.00000000</i>
   <i name="ALDAC">      1.00000000</i>
   <i name="AGGAC">      1.00000000</i>
   <i type="int" name="NKREDX">     1</i>
   <i type="int" name="NKREDY">     1</i>
   <i type="int" name="NKREDZ">     1</i>
   <i type="logical" name="SHIFTRED"> F  </i>
   <i type="logical" name="ODDONLY"> F  </i>
   <i type="logical" name="EVENONLY"> F  </i>
   <i type="int" name="LMAXFOCK">     0</i>
   <i type="int" name="NMAXFOCKAE">     0</i>
   <i type="logical" name="LFOCKAEDFT"> F  </i>
   <i name="HFSCREEN">      0.00000000</i>
   <i name="HFSCREENC">      0.00000000</i>
   <i type="int" name="NBANDSGWLOW">     0</i>
  </separator>
  <separator name="vdW DFT" >
   <i type="logical" name="LUSE_VDW"> F  </i>
   <i name="Zab_VDW">     -0.84910000</i>
   <i name="PARAM1">      0.12340000</i>
   <i name="PARAM2">      1.00000000</i>
   <i name="PARAM3">      0.00000000</i>
  </separator>
  <separator name="model GW" >
   <i type="int" name="MODEL_GW">     0</i>
   <i name="MODEL_EPS0">     63.78801996</i>
   <i name="MODEL_ALPHA">      1.00000000</i>
  </separator>
  <separator name="linear response parameters" >
   <i type="logical" name="LEPSILON"> F  </i>
   <i type="logical" name="LRPA"> F  </i>
   <i type="logical" name="LNABLA"> F  </i>
   <i type="logical" name="LVEL"> F  </i>
   <i type="int" name="KINTER">     0</i>
   <i name="CSHIFT">      0.10000000</i>
   <i name="OMEGAMAX">     -1.00000000</i>
   <i name="DEG_THRESHOLD">      0.00200000</i>
   <i name="RTIME">     -0.10000000</i>
   <i name="WPLASMAI">      0.00000000</i>
   <v name="DFIELD">      0.00000000      0.00000000      0.00000000</v>
   <v name="WPLASMA">      0.00000000      0.00000000      0.00000000      0.00000000      0.00000000      0.00000000      0.00000000      0.00000000      0.00000000</v>
  </separator>
  <separator name="orbital magnetization" >
   <i type="logical" name="NUCIND"> F  </i>
   <v name="MAGPOS">      0.00000000      0.00000000      0.00000000</v>
   <i type="logical" name="LNICSALL"> T  </i>
   <i type="logical" name="ORBITALMAG"> F  </i>
   <i type="logical" name="LMAGBLOCH"> F  </i>
   <i type="logical" name="LCHIMAG"> F  </i>
   <i type="logical" name="LGAUGE"> T  </i>
   <i type="int" name="MAGATOM">     0</i>
   <v name="MAGDIPOL">      0.00000000      0.00000000      0.00000000</v>
   <v name="AVECCONST">      0.00000000      0.00000000      0.00000000</v>
  </separator>
  <separator name="response functions" >
   <i type="logical" name="LADDER"> F  </i>
   <i type="logical" name="LRPAFORCE"> F  </i>
   <i type="logical" name="LFXC"> F  </i>
   <i type="logical" name="LHARTREE"> T  </i>
   <i type="int" name="IBSE">     0</i>
   <v type="int" name="KPOINT">    -1     0     0     0</v>
   <i type="logical" name="LTCTE"> F  </i>
   <i type="logical" name="LTETE"> F  </i>
   <i type="logical" name="LTRIPLET"> F  </i>
   <i type="logical" name="LFXCEPS"> F  </i>
   <i type="logical" name="LFXHEG"> F  </i>
   <i type="int" name="NATURALO">     2</i>
   <i type="logical" name="L2ORDER"> F  </i>
   <i type="logical" name="LMP2LT"> F  </i>
   <i type="logical" name="LUSEW"> F  </i>
   <i name="ENCUTGW">     -2.00000000</i>
   <i name="ENCUTGWSOFT">     -2.00000000</i>
   <i name="ENCUTLF">     -1.00000000</i>
   <i type="int" name="LMAXMP2">    -1</i>
   <i name="SCISSOR">      0.00000000</i>
   <i type="int" name="NOMEGA">     0</i>
   <i type="int" name="NOMEGAR">     0</i>
   <i type="int" name="NBANDSGW">    -1</i>
   <i type="int" name="NBANDSO">    -1</i>
   <i type="int" name="NBANDSV">    -1</i>
   <i type="int" name="NELM">   200</i>
   <i type="int" name="NELMHF">     1</i>
   <i type="int" name="DIM">     3</i>
   <i type="int" name="ANTIRES">     0</i>
   <i name="OMEGAMAX">    -30.00000000</i>
   <i name="OMEGAMIN">    -30.00000000</i>
   <i name="OMEGATL">   -200.00000000</i>
   <i type="int" name="OMEGAGRID">   140</i>
   <i name="CSHIFT">     -0.10000000</i>
   <i type="logical" name="SELFENERGY"> F  </i>
   <i type="logical" name="LSPECTRAL"> F  </i>
   <i type="logical" name="LSPECTRALGW"> F  </i>
   <i type="logical" name="LSINGLES"> F  </i>
   <i type="logical" name="LFERMIGW"> F  </i>
   <i type="logical" name="ODDONLYGW"> F  </i>
   <i type="logical" name="EVENONLYGW"> F  </i>
   <i type="int" name="NKREDLFX">     1</i>
   <i type="int" name="NKREDLFY">     1</i>
   <i type="int" name="NKREDLFZ">     1</i>
   <i type="int" name="MAXMEM">  2800</i>
   <i type="int" name="TELESCOPE">     0</i>
   <i type="int" name="TAUPAR">     1</i>
   <i type="int" name="OMEGAPAR">    -1</i>
   <i name="LAMBDA">      1.00000000</i>
  </separator>
  <separator name="External order field" >
   <i name="OFIELD_KAPPA">      0.00000000</i>
   <v name="OFIELD_K">      0.00000000      0.00000000      0.00000000</v>
   <i name="OFIELD_Q6_NEAR">      0.00000000</i>
   <i name="OFIELD_Q6_FAR">      0.00000000</i>
   <i name="OFIELD_A">      0.00000000</i>
  </separator>
  <separator name="solvation model" >
   <i type="logical" name="LSOL"> F  </i>
  </separator>
 </parameters>
 <atominfo>
  <atoms>      78 </atoms>
  <types>       4 </types>
  <array name="atoms" >
   <dimension dim="1">ion</dimension>
   <field type="string">element</field>
   <field type="int">atomtype</field>
   <set>
    <rc><c>C </c><c>   1</c></rc>
    <rc><c>C </c><c>   1</c></rc>
    <rc><c>C </c><c>   1</c></rc>
    <rc><c>C </c><c>   1</c></rc>
    <rc><c>C </c><c>   1</c></rc>
    <rc><c>C </c><c>   1</c></rc>
    <rc><c>C </c><c>   1</c></rc>
    <rc><c>C </c><c>   1</c></rc>
    <rc><c>C </c><c>   1</c></rc>
    <rc><c>C </c><c>   1</c></rc>
    <rc><c>C </c><c>   1</c></rc>
    <rc><c>C </c><c>   1</c></rc>
    <rc><c>C </c><c>   1</c></rc>
    <rc><c>C </c><c>   1</c></rc>
    <rc><c>C </c><c>   1</c></rc>
    <rc><c>C </c><c>   1</c></rc>
    <rc><c>C </c><c>   1</c></rc>
    <rc><c>C </c><c>   1</c></rc>
    <rc><c>C </c><c>   1</c></rc>
    <rc><c>C </c><c>   1</c></rc>
    <rc><c>C </c><c>   1</c></rc>
    <rc><c>C </c><c>   1</c></rc>
    <rc><c>C </c><c>   1</c></rc>
    <rc><c>C </c><c>   1</c></rc>
    <rc><c>C </c><c>   1</c></rc>
    <rc><c>C </c><c>   1</c></rc>
    <rc><c>C </c><c>   1</c></rc>
    <rc><c>C </c><c>   1</c></rc>
    <rc><c>C </c><c>   1</c></rc>
    <rc><c>C </c><c>   1</c></rc>
    <rc><c>C </c><c>   1</c></rc>
    <rc><c>C </c><c>   1</c></rc>
    <rc><c>C </c><c>   1</c></rc>
    <rc><c>O </c><c>   2</c></rc>
    <rc><c>O </c><c>   2</c></rc>
    <rc><c>O </c><c>   2</c></rc>
    <rc><c>O </c><c>   2</c></rc>
    <rc><c>O </c><c>   2</c></rc>
    <rc><c>O </c><c>   2</c></rc>
    <rc><c>O </c><c>   2</c></rc>
    <rc><c>O </c><c>   2</c></rc>
    <rc><c>O </c><c>   2</c></rc>
    <rc><c>N </c><c>   3</c></rc>
    <rc><c>N </c><c>   3</c></rc>
    <rc><c>N </c><c>   3</c></rc>
    <rc><c>N </c><c>   3</c></rc>
    <rc><c>N </c><c>   3</c></rc>
    <rc><c>N </c><c>   3</c></rc>
    <rc><c>N </c><c>   3</c></rc>
    <rc><c>N </c><c>   3</c></rc>
    <rc><c>N </c><c>   3</c></rc>
    <rc><c>N </c><c>   3</c></rc>
    <rc><c>N </c><c>   3</c></rc>
    <rc><c>N </c><c>   3</c></rc>
    <rc><c>N </c><c>   3</c></rc>
    <rc><c>N </c><c>   3</c></rc>
    <rc><c>N </c><c>   3</c></rc>
    <rc><c>H </c><c>   4</c></rc>
    <rc><c>H </c><c>   4</c></rc>
    <rc><c>H </c><c>   4</c></rc>
    <rc><c>H </c><c>   4</c></rc>
    <rc><c>H </c><c>   4</c></rc>
    <rc><c>H </c><c>   4</c></rc>
    <rc><c>H </c><c>   4</c></rc>
    <rc><c>H </c><c>   4</c></rc>
    <rc><c>H </c><c>   4</c></rc>
    <rc><c>H </c><c>   4</c></rc>
    <rc><c>H </c><c>   4</c></rc>
    <rc><c>H </c><c>   4</c></rc>
    <rc><c>H </c><c>   4</c></rc>
    <rc><c>H </c><c>   4</c></rc>
    <rc><c>H </c><c>   4</c></rc>
    <rc><c>H </c><c>   4</c></rc>
    <rc><c>H </c><c>   4</c></rc>
    <rc><c>H </c><c>   4</c></rc>
    <rc><c>H </c><c>   4</c></rc>
    <rc><c>H </c><c>   4</c></rc>
    <rc><c>H </c><c>   4</c></rc>
   </set>
  </array>
  <array name="atomtypes" >
   <dimension dim="1">type</dimension>
   <field type="int">atomspertype</field>
   <field type="string">element</field>
   <field>mass</field>
   <field>valence</field>
   <field type="string">pseudopotential</field>
   <set>
    <rc><c>  33</c><c>C </c><c>     12.01100000</c><c>      4.00000000</c><c>  PAW_PBE C 08Apr2002                   </c></rc>
    <rc><c>   9</c><c>O </c><c>     16.00000000</c><c>      6.00000000</c><c>  PAW_PBE O 08Apr2002                   </c></rc>
    <rc><c>  15</c><c>N </c><c>     14.00100000</c><c>      5.00000000</c><c>  PAW_PBE N 08Apr2002                   </c></rc>
    <rc><c>  21</c><c>H </c><c>      1.00000000</c><c>      1.00000000</c><c>  PAW_PBE H 15Jun2001                   </c></rc>
   </set>
  </array>
 </atominfo>
 <structure name="initialpos" >
  <crystal>
   <varray name="basis" >
    <v>      21.88744302       0.02567038       0.00000000 </v>
    <v>     -10.92150507      18.93056993       0.00000000 </v>
    <v>       0.00000000       0.00000000      20.00000000 </v>
   </varray>
   <i name="volume">   8292.44259514 </i>
   <varray name="rec_basis" >
    <v>       0.04565740       0.02634086       0.00000000 </v>
    <v>      -0.00006191       0.05278889       0.00000000 </v>
    <v>       0.00000000       0.00000000       0.05000000 </v>
   </varray>
  </crystal>
  <varray name="positions" >
   <v>       0.26327977       0.61540180       0.54299295 </v>
   <v>       0.31309466       0.59297000       0.54359901 </v>
   <v>       0.38522252       0.64186201       0.54366871 </v>
   <v>       0.40746155       0.71409861       0.54414441 </v>
   <v>       0.28646521       0.68764343       0.54358816 </v>
   <v>       0.18724136       0.55792490       0.53826258 </v>
   <v>       0.44279449       0.62321355       0.53961063 </v>
   <v>       0.74099307       0.38570219       0.42731308 </v>
   <v>       0.68698126       0.40242222       0.42703826 </v>
   <v>       0.61624824       0.34928921       0.42809338 </v>
   <v>       0.59966617       0.27855043       0.42865294 </v>
   <v>       0.72338802       0.31483257       0.42802958 </v>
   <v>       0.81505841       0.44729974       0.43319926 </v>
   <v>       0.55477504       0.36194879       0.43491668 </v>
   <v>       0.53971203       0.06574128       0.46234367 </v>
   <v>       0.46684969       0.01854837       0.45085514 </v>
   <v>       0.42196954       0.03989199       0.40994961 </v>
   <v>       0.93603362       0.46789035       0.45926059 </v>
   <v>       0.98334702       0.44200285       0.44901103 </v>
   <v>       0.96240043       0.37520136       0.40916877 </v>
   <v>       0.53388039       0.46217276       0.46167862 </v>
   <v>       0.55849779       0.53493426       0.44995251 </v>
   <v>       0.62417516       0.58054941       0.40872198 </v>
   <v>       0.35856573       0.73747492       0.54362142 </v>
   <v>       0.37709292       0.81369756       0.53945764 </v>
   <v>       0.65280763       0.26082020       0.42901469 </v>
   <v>       0.64041312       0.18679184       0.43674750 </v>
   <v>       0.54782294       0.97791175       0.51532756 </v>
   <v>       0.47594155       0.93084140       0.50315517 </v>
   <v>       0.02346416       0.56470425       0.51128443 </v>
   <v>       0.07060870       0.53958773       0.50042108 </v>
   <v>       0.43784352       0.45296621       0.51519618 </v>
   <v>       0.46164370       0.52475397       0.50282330 </v>
   <v>       0.33290663       0.83180683       0.54889176 </v>
   <v>       0.16903053       0.49569767       0.54846504 </v>
   <v>       0.50492434       0.66738349       0.54934230 </v>
   <v>       0.68961478       0.17496690       0.44051460 </v>
   <v>       0.82698929       0.50848214       0.43529058 </v>
   <v>       0.49372142       0.31281999       0.43723045 </v>
   <v>       0.39758604       0.01276902       0.35561755 </v>
   <v>       0.98970755       0.37713772       0.35514499 </v>
   <v>       0.62077464       0.60510300       0.35469823 </v>
   <v>       0.43596067       0.95152425       0.47079641 </v>
   <v>       0.41682586       0.09575997       0.43569272 </v>
   <v>       0.56981663       0.13565783       0.44124489 </v>
   <v>       0.05016095       0.47837594       0.46919428 </v>
   <v>       0.90667837       0.31463258       0.43540653 </v>
   <v>       0.86621689       0.42774946       0.43823475 </v>
   <v>       0.52179682       0.56520247       0.47006704 </v>
   <v>       0.68562625       0.58635218       0.43383756 </v>
   <v>       0.57423271       0.43261719       0.44050768 </v>
   <v>       0.57938914       0.04459531       0.49479576 </v>
   <v>       0.44657139       0.86005276       0.52245898 </v>
   <v>       0.95697016       0.52927535       0.49060667 </v>
   <v>       0.14119462       0.58112841       0.51988687 </v>
   <v>       0.47351785       0.42198682       0.49454618 </v>
   <v>       0.41988443       0.55368546       0.52241170 </v>
   <v>       0.46446405       0.74954543       0.54461997 </v>
   <v>       0.25094763       0.70923726       0.54383172 </v>
   <v>       0.29152567       0.53586354       0.54372468 </v>
   <v>       0.54350815       0.23969484       0.43096042 </v>
   <v>       0.76228509       0.29746157       0.43000905 </v>
   <v>       0.70429381       0.45872547       0.42803757 </v>
   <v>       0.42064136       0.10404308       0.48587860 </v>
   <v>       0.38473714       0.10924205       0.41076124 </v>
   <v>       0.53411581       0.15051358       0.42828968 </v>
   <v>       0.89816231       0.31090978       0.48555383 </v>
   <v>       0.89337468       0.26868353       0.41123971 </v>
   <v>       0.85133920       0.37685653       0.42660130 </v>
   <v>       0.69061624       0.58271837       0.48397985 </v>
   <v>       0.73074116       0.61904165       0.40867939 </v>
   <v>       0.62480154       0.46867097       0.42826891 </v>
   <v>       0.58028598       0.96111528       0.54268110 </v>
   <v>       0.48035548       0.84096847       0.52265511 </v>
   <v>       0.03997032       0.61441006       0.53774073 </v>
   <v>       0.16036558       0.63400705       0.51904586 </v>
   <v>       0.38898103       0.42011472       0.54285274 </v>
   <v>       0.36715041       0.51973362       0.52241980 </v>
  </varray>
 </structure>
 <calculation>
  <scstep>
   <time name="dav">  241.67  244.14</time>
   <time name="total">  241.80  244.28</time>
   <energy>
    <i name="alphaZ">     42.86700192 </i>
    <i name="ewald">  31732.84120899 </i>
    <i name="hartreedc"> -42472.21166782 </i>
    <i name="XCdc">   1073.54385145 </i>
    <i name="pawpsdc">  26861.06839477 </i>
    <i name="pawaedc"> -26923.34654675 </i>
    <i name="eentropy">     -0.00000000 </i>
    <i name="bandstr">  -3850.14199976 </i>
    <i name="atom">  12977.34359588 </i>
    <i name="e_fr_energy">   -558.03616132 </i>
    <i name="e_wo_entrp">   -558.03616132 </i>
    <i name="e_0_energy">   -558.03616132 </i>
   </energy>
  </scstep>
  <scstep>
   <time name="dav">  277.80  280.69</time>
   <time name="total">  277.80  280.70</time>
   <energy>
    <i name="e_fr_energy">   -558.78671835 </i>
    <i name="e_wo_entrp">   -558.78671835 </i>
    <i name="e_0_energy">   -558.78671835 </i>
   </energy>
  </scstep>
  <scstep>
   <time name="dav">  317.12  320.39</time>
   <time name="total">  317.12  320.39</time>
   <energy>
    <i name="e_fr_energy">   -558.80643801 </i>
    <i name="e_wo_entrp">   -558.80643801 </i>
    <i name="e_0_energy">   -558.80643801 </i>
   </energy>
  </scstep>
  <scstep>
   <time name="dav">  273.08  275.89</time>
   <time name="total">  273.08  275.89</time>
   <energy>
    <i name="e_fr_energy">   -558.80673904 </i>
    <i name="e_wo_entrp">   -558.80673904 </i>
    <i name="e_0_energy">   -558.80673904 </i>
   </energy>
  </scstep>
  <scstep>
   <time name="dav">  259.32  262.01</time>
   <time name="total">  259.32  262.01</time>
   <energy>
    <i name="e_fr_energy">   -558.80675350 </i>
    <i name="e_wo_entrp">   -558.80675350 </i>
    <i name="e_0_energy">   -558.80675350 </i>
   </energy>
  </scstep>
  <scstep>
   <time name="dav">  217.83  220.07</time>
   <time name="total">  217.83  220.07</time>
   <energy>
    <i name="alphaZ">     42.86700192 </i>
    <i name="ewald">  31732.84120899 </i>
    <i name="hartreedc"> -42472.21166782 </i>
    <i name="XCdc">   1073.54385145 </i>
    <i name="pawpsdc">  26861.06839477 </i>
    <i name="pawaedc"> -26923.34654675 </i>
    <i name="eentropy">     -0.00000000 </i>
    <i name="bandstr">  -3850.91259249 </i>
    <i name="atom">  12977.34359588 </i>
    <i name="e_fr_energy">   -558.80675406 </i>
    <i name="e_wo_entrp">   -558.80675406 </i>
    <i name="e_0_energy">   -558.80675406 </i>
   </energy>
  </scstep>
  <structure>
   <crystal>
    <varray name="basis" >
     <v>      21.88744302       0.02567038       0.00000000 </v>
     <v>     -10.92150507      18.93056993       0.00000000 </v>
     <v>       0.00000000       0.00000000      20.00000000 </v>
    </varray>
    <i name="volume">   8292.44259514 </i>
    <varray name="rec_basis" >
     <v>       0.04565740       0.02634086       0.00000000 </v>
     <v>      -0.00006191       0.05278889       0.00000000 </v>
     <v>       0.00000000       0.00000000       0.05000000 </v>
    </varray>
   </crystal>
   <varray name="positions" >
    <v>       0.26327977       0.61540180       0.54299295 </v>
    <v>       0.31309466       0.59297000       0.54359901 </v>
    <v>       0.38522252       0.64186201       0.54366871 </v>
    <v>       0.40746155       0.71409861       0.54414441 </v>
    <v>       0.28646521       0.68764343       0.54358816 </v>
    <v>       0.18724136       0.55792490       0.53826258 </v>
    <v>       0.44279449       0.62321355       0.53961063 </v>
    <v>       0.74099307       0.38570219       0.42731308 </v>
    <v>       0.68698126       0.40242222       0.42703826 </v>
    <v>       0.61624824       0.34928921       0.42809338 </v>
    <v>       0.59966617       0.27855043       0.42865294 </v>
    <v>       0.72338802       0.31483257       0.42802958 </v>
    <v>       0.81505841       0.44729974       0.43319926 </v>
    <v>       0.55477504       0.36194879       0.43491668 </v>
    <v>       0.53971203       0.06574128       0.46234367 </v>
    <v>       0.46684969       0.01854837       0.45085514 </v>
    <v>       0.42196954       0.03989199       0.40994961 </v>
    <v>       0.93603362       0.46789035       0.45926059 </v>
    <v>       0.98334702       0.44200285       0.44901103 </v>
    <v>       0.96240043       0.37520136       0.40916877 </v>
    <v>       0.53388039       0.46217276       0.46167862 </v>
    <v>       0.55849779       0.53493426       0.44995251 </v>
    <v>       0.62417516       0.58054941       0.40872198 </v>
    <v>       0.35856573       0.73747492       0.54362142 </v>
    <v>       0.37709292       0.81369756       0.53945764 </v>
    <v>       0.65280763       0.26082020       0.42901469 </v>
    <v>       0.64041312       0.18679184       0.43674750 </v>
    <v>       0.54782294       0.97791175       0.51532756 </v>
    <v>       0.47594155       0.93084140       0.50315517 </v>
    <v>       0.02346416       0.56470425       0.51128443 </v>
    <v>       0.07060870       0.53958773       0.50042108 </v>
    <v>       0.43784352       0.45296621       0.51519618 </v>
    <v>       0.46164370       0.52475397       0.50282330 </v>
    <v>       0.33290663       0.83180683       0.54889176 </v>
    <v>       0.16903053       0.49569767       0.54846504 </v>
    <v>       0.50492434       0.66738349       0.54934230 </v>
    <v>       0.68961478       0.17496690       0.44051460 </v>
    <v>       0.82698929       0.50848214       0.43529058 </v>
    <v>       0.49372142       0.31281999       0.43723045 </v>
    <v>       0.39758604       0.01276902       0.35561755 </v>
    <v>       0.98970755       0.37713772       0.35514499 </v>
    <v>       0.62077464       0.60510300       0.35469823 </v>
    <v>       0.43596067       0.95152425       0.47079641 </v>
    <v>       0.41682586       0.09575997       0.43569272 </v>
    <v>       0.56981663       0.13565783       0.44124489 </v>
    <v>       0.05016095       0.47837594       0.46919428 </v>
    <v>       0.90667837       0.31463258       0.43540653 </v>
    <v>       0.86621689       0.42774946       0.43823475 </v>
    <v>       0.52179682       0.56520247       0.47006704 </v>
    <v>       0.68562625       0.58635218       0.43383756 </v>
    <v>       0.57423271       0.43261719       0.44050768 </v>
    <v>       0.57938914       0.04459531       0.49479576 </v>
    <v>       0.44657139       0.86005276       0.52245898 </v>
    <v>       0.95697016       0.52927535       0.49060667 </v>
    <v>       0.14119462       0.58112841       0.51988687 </v>
    <v>       0.47351785       0.42198682       0.49454618 </v>
    <v>       0.41988443       0.55368546       0.52241170 </v>
    <v>       0.46446405       0.74954543       0.54461997 </v>
    <v>       0.25094763       0.70923726       0.54383172 </v>
    <v>       0.29152567       0.53586354       0.54372468 </v>
    <v>       0.54350815       0.23969484       0.43096042 </v>
    <v>       0.76228509       0.29746157       0.43000905 </v>
    <v>       0.70429381       0.45872547       0.42803757 </v>
    <v>       0.42064136       0.10404308       0.48587860 </v>
    <v>       0.38473714       0.10924205       0.41076124 </v>
    <v>       0.53411581       0.15051358       0.42828968 </v>
    <v>       0.89816231       0.31090978       0.48555383 </v>
    <v>       0.89337468       0.26868353       0.41123971 </v>
    <v>       0.85133920       0.37685653       0.42660130 </v>
    <v>       0.69061624       0.58271837       0.48397985 </v>
    <v>       0.73074116       0.61904165       0.40867939 </v>
    <v>       0.62480154       0.46867097       0.42826891 </v>
    <v>       0.58028598       0.96111528       0.54268110 </v>
    <v>       0.48035548       0.84096847       0.52265511 </v>
    <v>       0.03997032       0.61441006       0.53774073 </v>
    <v>       0.16036558       0.63400705       0.51904586 </v>
    <v>       0.38898103       0.42011472       0.54285274 </v>
    <v>       0.36715041       0.51973362       0.52241980 </v>
   </varray>
  </structure>
  <varray name="forces" >
   <v>      -0.00170185       0.00054528      -0.00044051 </v>
   <v>      -0.00214881      -0.00083053      -0.00082632 </v>
   <v>      -0.00146349      -0.00009286      -0.00241256 </v>
   <v>       0.00270220       0.00124728      -0.00222919 </v>
   <v>       0.00122355      -0.00193565      -0.00165593 </v>
   <v>       0.00213735      -0.00433711       0.00151882 </v>
   <v>       0.00239896       0.00286367       0.00029868 </v>
   <v>       0.00102028       0.00171682       0.00125524 </v>
   <v>      -0.00225965       0.00043016      -0.00009863 </v>
   <v>       0.00132241      -0.00023351      -0.00040609 </v>
   <v>      -0.00153474       0.00144375      -0.00044114 </v>
   <v>      -0.00053633       0.00221210       0.00031807 </v>
   <v>       0.00180759       0.00450586       0.00236449 </v>
   <v>      -0.00141445      -0.00253443       0.00182181 </v>
   <v>       0.00421718      -0.00140730       0.00320544 </v>
   <v>       0.00013844      -0.00535711      -0.00143949 </v>
   <v>      -0.00407565      -0.00546581      -0.00789736 </v>
   <v>      -0.00189136       0.00329267      -0.00047001 </v>
   <v>      -0.00108449       0.00210707       0.00139487 </v>
   <v>       0.00200386       0.00529742      -0.00014192 </v>
   <v>      -0.00222637      -0.00190485       0.00205779 </v>
   <v>      -0.00091850       0.00294214      -0.00010639 </v>
   <v>       0.00159215      -0.00409890       0.00245132 </v>
   <v>       0.00064763      -0.00210304      -0.00194415 </v>
   <v>       0.00122569       0.00089477      -0.00222877 </v>
   <v>      -0.00066381       0.00099220       0.00093755 </v>
   <v>      -0.00099815      -0.00206157       0.00391139 </v>
   <v>       0.00192727       0.00001448      -0.00288941 </v>
   <v>       0.00022257      -0.00172805       0.00262696 </v>
   <v>      -0.00043405       0.00025021      -0.00282724 </v>
   <v>      -0.00377903       0.00023287       0.00264656 </v>
   <v>      -0.00390134       0.00021526      -0.00126815 </v>
   <v>       0.00057240       0.00206003       0.00212785 </v>
   <v>       0.00340879      -0.00149284      -0.00226358 </v>
   <v>      -0.00507182       0.00494926      -0.00380908 </v>
   <v>      -0.00198736       0.00015724      -0.00129221 </v>
   <v>      -0.00090139       0.00081844      -0.00138879 </v>
   <v>      -0.00045754      -0.00433782       0.00062521 </v>
   <v>       0.00774223       0.00511110       0.00073233 </v>
   <v>      -0.00156508       0.00165824       0.00403771 </v>
   <v>      -0.00308078      -0.00132203       0.00461993 </v>
   <v>      -0.00148612      -0.00464251      -0.00132238 </v>
   <v>      -0.00053633       0.00581328      -0.00451206 </v>
   <v>      -0.00550155      -0.00133884       0.00430460 </v>
   <v>       0.00453645       0.00715760       0.00492546 </v>
   <v>      -0.00031555      -0.00036651      -0.00197015 </v>
   <v>      -0.00430352       0.00111105       0.00359882 </v>
   <v>       0.00003125      -0.00400122       0.00156595 </v>
   <v>      -0.00115813      -0.00201750      -0.00134595 </v>
   <v>      -0.00119263      -0.00205051       0.00667336 </v>
   <v>      -0.00166471      -0.00694680       0.00216306 </v>
   <v>      -0.00154400      -0.00201733      -0.00120139 </v>
   <v>       0.00282644      -0.00211381       0.00246410 </v>
   <v>       0.00117591      -0.00389199      -0.00253968 </v>
   <v>      -0.00433955      -0.00060519       0.00037175 </v>
   <v>       0.00234183      -0.00231377      -0.00593738 </v>
   <v>       0.00193875      -0.00539652       0.00163591 </v>
   <v>      -0.00123357      -0.00066530       0.00049847 </v>
   <v>       0.00258471       0.00026571      -0.00258654 </v>
   <v>       0.00145077       0.00156527      -0.00407769 </v>
   <v>       0.00092048       0.00008343       0.00279217 </v>
   <v>      -0.00132203       0.00069758       0.00171186 </v>
   <v>      -0.00030992      -0.00229560      -0.00169478 </v>
   <v>      -0.00133274       0.00270188      -0.00031360 </v>
   <v>       0.00050922       0.00167628       0.00123400 </v>
   <v>       0.00220704      -0.00019451       0.00166534 </v>
   <v>      -0.00030629       0.00039759       0.00122434 </v>
   <v>       0.00109217       0.00453099      -0.00126842 </v>
   <v>       0.00125360       0.00482429       0.00016568 </v>
   <v>       0.00011515      -0.00008937      -0.00316669 </v>
   <v>       0.00137304      -0.00088773      -0.00009253 </v>
   <v>       0.00200062      -0.00006358      -0.00079069 </v>
   <v>       0.00313045       0.00111351      -0.00030890 </v>
   <v>      -0.00098498      -0.00074088      -0.00104750 </v>
   <v>       0.00390702       0.00302524      -0.00278712 </v>
   <v>      -0.00162028       0.00047828       0.00075817 </v>
   <v>       0.00120364      -0.00008141      -0.00084330 </v>
   <v>       0.00233884       0.00256402      -0.00042138 </v>
  </varray>
  <varray name="stress" >
   <v>       0.05559956       0.00231849       0.01291590 </v>
   <v>       0.00231849       0.05323948      -0.00005466 </v>
   <v>       0.01291590      -0.00005466      -0.28893217 </v>
  </varray>
  <energy>
   <i name="e_fr_energy">   -560.46265072 </i>
   <i name="e_wo_entrp">   -560.46265072 </i>
   <i name="e_0_energy">     -0.00000000 </i>
  </energy>
  <time name="totalsc"> 1869.37 1889.46</time>
  <eigenvalues>
   <array>
    <dimension dim="1">band</dimension>
    <dimension dim="2">kpoint</dimension>
    <dimension dim="3">spin</dimension>
    <field>eigene</field>
    <field>occ</field>
    <set>
     <set comment="spin 1">
      <set comment="kpoint 1">
       <r>  -26.2692    1.0000 </r>
       <r>  -26.2593    1.0000 </r>
       <r>  -26.2561    1.0000 </r>
       <r>  -26.1710    1.0000 </r>
       <r>  -26.1568    1.0000 </r>
       <r>  -26.1534    1.0000 </r>
       <r>  -26.1237    1.0000 </r>
       <r>  -26.1195    1.0000 </r>
       <r>  -26.1157    1.0000 </r>
       <r>  -25.0640    1.0000 </r>
       <r>  -25.0595    1.0000 </r>
       <r>  -25.0579    1.0000 </r>
       <r>  -24.0578    1.0000 </r>
       <r>  -24.0513    1.0000 </r>
       <r>  -24.0471    1.0000 </r>
       <r>  -23.2401    1.0000 </r>
       <r>  -23.2299    1.0000 </r>
       <r>  -23.2260    1.0000 </r>
       <r>  -22.8999    1.0000 </r>
       <r>  -22.8959    1.0000 </r>
       <r>  -22.8941    1.0000 </r>
       <r>  -22.5888    1.0000 </r>
       <r>  -22.5637    1.0000 </r>
       <r>  -22.5596    1.0000 </r>
       <r>  -21.9827    1.0000 </r>
       <r>  -21.9629    1.0000 </r>
       <r>  -19.9357    1.0000 </r>
       <r>  -19.9329    1.0000 </r>
       <r>  -19.5536    1.0000 </r>
       <r>  -19.5527    1.0000 </r>
       <r>  -19.4335    1.0000 </r>
       <r>  -18.9415    1.0000 </r>
       <r>  -18.9398    1.0000 </r>
       <r>  -17.5986    1.0000 </r>
       <r>  -17.5063    1.0000 </r>
       <r>  -17.5000    1.0000 </r>
       <r>  -17.2771    1.0000 </r>
       <r>  -17.2384    1.0000 </r>
       <r>  -17.2347    1.0000 </r>
       <r>  -16.3450    1.0000 </r>
       <r>  -16.3438    1.0000 </r>
       <r>  -15.9604    1.0000 </r>
       <r>  -15.7021    1.0000 </r>
       <r>  -15.7005    1.0000 </r>
       <r>  -15.1802    1.0000 </r>
       <r>  -15.1514    1.0000 </r>
       <r>  -15.1492    1.0000 </r>
       <r>  -15.0439    1.0000 </r>
       <r>  -15.0415    1.0000 </r>
       <r>  -14.8875    1.0000 </r>
       <r>  -14.6379    1.0000 </r>
       <r>  -14.1517    1.0000 </r>
       <r>  -14.1457    1.0000 </r>
       <r>  -14.1002    1.0000 </r>
       <r>  -13.9091    1.0000 </r>
       <r>  -13.9066    1.0000 </r>
       <r>  -13.8401    1.0000 </r>
       <r>  -13.8385    1.0000 </r>
       <r>  -13.7068    1.0000 </r>
       <r>  -13.3465    1.0000 </r>
       <r>  -13.2237    1.0000 </r>
       <r>  -13.2222    1.0000 </r>
       <r>  -13.0463    1.0000 </r>
       <r>  -12.9373    1.0000 </r>
       <r>  -12.6842    1.0000 </r>
       <r>  -12.6743    1.0000 </r>
       <r>  -12.2219    1.0000 </r>
       <r>  -12.0682    1.0000 </r>
       <r>  -11.9384    1.0000 </r>
       <r>  -11.9365    1.0000 </r>
       <r>  -11.8685    1.0000 </r>
       <r>  -11.6511    1.0000 </r>
       <r>  -11.6484    1.0000 </r>
       <r>  -11.6199    1.0000 </r>
       <r>  -11.3636    1.0000 </r>
       <r>  -11.3595    1.0000 </r>
       <r>  -11.2709    1.0000 </r>
       <r>  -11.2168    1.0000 </r>
       <r>  -11.1434    1.0000 </r>
       <r>  -11.1352    1.0000 </r>
       <r>  -10.9381    1.0000 </r>
       <r>  -10.8098    1.0000 </r>
       <r>  -10.8081    1.0000 </r>
       <r>  -10.6812    1.0000 </r>
       <r>  -10.6474    1.0000 </r>
       <r>  -10.6411    1.0000 </r>
       <r>  -10.5921    1.0000 </r>
       <r>  -10.3057    1.0000 </r>
       <r>  -10.3046    1.0000 </r>
       <r>  -10.2639    1.0000 </r>
       <r>  -10.2617    1.0000 </r>
       <r>  -10.2178    1.0000 </r>
       <r>  -10.1495    1.0000 </r>
       <r>  -10.1461    1.0000 </r>
       <r>  -10.0904    1.0000 </r>
       <r>  -10.0233    1.0000 </r>
       <r>  -10.0215    1.0000 </r>
       <r>   -9.9956    1.0000 </r>
       <r>   -9.7596    1.0000 </r>
       <r>   -9.7159    1.0000 </r>
       <r>   -9.7137    1.0000 </r>
       <r>   -9.4522    1.0000 </r>
       <r>   -9.0971    1.0000 </r>
       <r>   -9.0942    1.0000 </r>
       <r>   -9.0579    1.0000 </r>
       <r>   -9.0565    1.0000 </r>
       <r>   -8.9476    1.0000 </r>
       <r>   -8.7315    1.0000 </r>
       <r>   -8.7264    1.0000 </r>
       <r>   -8.4570    1.0000 </r>
       <r>   -7.9658    1.0000 </r>
       <r>   -7.9616    1.0000 </r>
       <r>   -7.9080    1.0000 </r>
       <r>   -7.2583    1.0000 </r>
       <r>   -7.2541    1.0000 </r>
       <r>   -7.2436    1.0000 </r>
       <r>   -7.1963    1.0000 </r>
       <r>   -7.1902    1.0000 </r>
       <r>   -7.1351    1.0000 </r>
       <r>   -6.9845    1.0000 </r>
       <r>   -6.9795    1.0000 </r>
       <r>   -6.9745    1.0000 </r>
       <r>   -6.8811    1.0000 </r>
       <r>   -6.8796    1.0000 </r>
       <r>   -6.8174    1.0000 </r>
       <r>   -6.8158    1.0000 </r>
       <r>   -6.7282    1.0000 </r>
       <r>   -6.6961    1.0000 </r>
       <r>   -6.6922    1.0000 </r>
       <r>   -6.1483    1.0000 </r>
       <r>   -6.1320    1.0000 </r>
       <r>   -6.0224    1.0000 </r>
       <r>   -6.0194    1.0000 </r>
       <r>   -5.9447    1.0000 </r>
       <r>   -5.9373    1.0000 </r>
       <r>   -5.6177    1.0000 </r>
       <r>   -5.5813    1.0000 </r>
       <r>   -5.5755    1.0000 </r>
       <r>   -5.4638    1.0000 </r>
       <r>   -5.3920    1.0000 </r>
       <r>   -5.3832    1.0000 </r>
       <r>   -2.9019    0.0000 </r>
       <r>   -2.8989    0.0000 </r>
       <r>   -2.5827    0.0000 </r>
       <r>   -2.5811    0.0000 </r>
       <r>   -2.5761    0.0000 </r>
       <r>   -2.4989    0.0000 </r>
       <r>   -2.4920    0.0000 </r>
       <r>   -2.2431    0.0000 </r>
       <r>   -1.5109    0.0000 </r>
       <r>   -1.4987    0.0000 </r>
       <r>   -1.3718    0.0000 </r>
       <r>   -1.0365    0.0000 </r>
       <r>   -0.8895    0.0000 </r>
       <r>   -0.8863    0.0000 </r>
       <r>   -0.6655    0.0000 </r>
       <r>   -0.5868    0.0000 </r>
       <r>   -0.4190    0.0000 </r>
       <r>   -0.4150    0.0000 </r>
       <r>   -0.3735    0.0000 </r>
       <r>   -0.1758    0.0000 </r>
       <r>   -0.1725    0.0000 </r>
       <r>    0.2893    0.0000 </r>
       <r>    0.3432    0.0000 </r>
       <r>    0.3903    0.0000 </r>
       <r>    0.3945    0.0000 </r>
       <r>    0.5272    0.0000 </r>
       <r>    0.5351    0.0000 </r>
       <r>    0.5368    0.0000 </r>
       <r>    0.5493    0.0000 </r>
       <r>    0.6841    0.0000 </r>
       <r>    0.6850    0.0000 </r>
       <r>    0.6866    0.0000 </r>
       <r>    0.7660    0.0000 </r>
       <r>    0.7705    0.0000 </r>
       <r>    0.9054    0.0000 </r>
       <r>    0.9085    0.0000 </r>
       <r>    0.9105    0.0000 </r>
       <r>    0.9478    0.0000 </r>
       <r>    0.9516    0.0000 </r>
       <r>    0.9574    0.0000 </r>
       <r>    1.0318    0.0000 </r>
       <r>    1.1115    0.0000 </r>
       <r>    1.1135    0.0000 </r>
       <r>    1.1161    0.0000 </r>
       <r>    1.1559    0.0000 </r>
       <r>    1.1602    0.0000 </r>
       <r>    1.1626    0.0000 </r>
       <r>    1.2502    0.0000 </r>
       <r>    1.2550    0.0000 </r>
       <r>    1.2562    0.0000 </r>
       <r>    1.4193    0.0000 </r>
      </set>
      <set comment="kpoint 2">
       <r>  -26.2692    1.0000 </r>
       <r>  -26.2593    1.0000 </r>
       <r>  -26.2561    1.0000 </r>
       <r>  -26.1710    1.0000 </r>
       <r>  -26.1568    1.0000 </r>
       <r>  -26.1534    1.0000 </r>
       <r>  -26.1237    1.0000 </r>
       <r>  -26.1195    1.0000 </r>
       <r>  -26.1157    1.0000 </r>
       <r>  -25.0640    1.0000 </r>
       <r>  -25.0595    1.0000 </r>
       <r>  -25.0579    1.0000 </r>
       <r>  -24.0578    1.0000 </r>
       <r>  -24.0513    1.0000 </r>
       <r>  -24.0471    1.0000 </r>
       <r>  -23.2401    1.0000 </r>
       <r>  -23.2299    1.0000 </r>
       <r>  -23.2260    1.0000 </r>
       <r>  -22.8999    1.0000 </r>
       <r>  -22.8959    1.0000 </r>
       <r>  -22.8941    1.0000 </r>
       <r>  -22.5888    1.0000 </r>
       <r>  -22.5637    1.0000 </r>
       <r>  -22.5596    1.0000 </r>
       <r>  -21.9827    1.0000 </r>
       <r>  -21.9629    1.0000 </r>
       <r>  -19.9356    1.0000 </r>
       <r>  -19.9327    1.0000 </r>
       <r>  -19.5554    1.0000 </r>
       <r>  -19.5536    1.0000 </r>
       <r>  -19.4307    1.0000 </r>
       <r>  -18.9415    1.0000 </r>
       <r>  -18.9403    1.0000 </r>
       <r>  -17.5984    1.0000 </r>
       <r>  -17.5063    1.0000 </r>
       <r>  -17.5000    1.0000 </r>
       <r>  -17.2770    1.0000 </r>
       <r>  -17.2384    1.0000 </r>
       <r>  -17.2347    1.0000 </r>
       <r>  -16.3449    1.0000 </r>
       <r>  -16.3436    1.0000 </r>
       <r>  -15.9620    1.0000 </r>
       <r>  -15.7021    1.0000 </r>
       <r>  -15.6988    1.0000 </r>
       <r>  -15.1804    1.0000 </r>
       <r>  -15.1515    1.0000 </r>
       <r>  -15.1492    1.0000 </r>
       <r>  -15.0442    1.0000 </r>
       <r>  -15.0424    1.0000 </r>
       <r>  -14.8865    1.0000 </r>
       <r>  -14.6377    1.0000 </r>
       <r>  -14.1517    1.0000 </r>
       <r>  -14.1458    1.0000 </r>
       <r>  -14.1004    1.0000 </r>
       <r>  -13.9091    1.0000 </r>
       <r>  -13.9066    1.0000 </r>
       <r>  -13.8403    1.0000 </r>
       <r>  -13.8385    1.0000 </r>
       <r>  -13.7066    1.0000 </r>
       <r>  -13.3465    1.0000 </r>
       <r>  -13.2237    1.0000 </r>
       <r>  -13.2222    1.0000 </r>
       <r>  -13.0463    1.0000 </r>
       <r>  -12.9370    1.0000 </r>
       <r>  -12.6844    1.0000 </r>
       <r>  -12.6746    1.0000 </r>
       <r>  -12.2216    1.0000 </r>
       <r>  -12.0684    1.0000 </r>
       <r>  -11.9384    1.0000 </r>
       <r>  -11.9364    1.0000 </r>
       <r>  -11.8686    1.0000 </r>
       <r>  -11.6511    1.0000 </r>
       <r>  -11.6484    1.0000 </r>
       <r>  -11.6199    1.0000 </r>
       <r>  -11.3636    1.0000 </r>
       <r>  -11.3594    1.0000 </r>
       <r>  -11.2710    1.0000 </r>
       <r>  -11.2168    1.0000 </r>
       <r>  -11.1435    1.0000 </r>
       <r>  -11.1353    1.0000 </r>
       <r>  -10.9379    1.0000 </r>
       <r>  -10.8098    1.0000 </r>
       <r>  -10.8079    1.0000 </r>
       <r>  -10.6815    1.0000 </r>
       <r>  -10.6490    1.0000 </r>
       <r>  -10.6419    1.0000 </r>
       <r>  -10.5894    1.0000 </r>
       <r>  -10.3057    1.0000 </r>
       <r>  -10.3045    1.0000 </r>
       <r>  -10.2640    1.0000 </r>
       <r>  -10.2619    1.0000 </r>
       <r>  -10.2178    1.0000 </r>
       <r>  -10.1495    1.0000 </r>
       <r>  -10.1461    1.0000 </r>
       <r>  -10.0905    1.0000 </r>
       <r>  -10.0233    1.0000 </r>
       <r>  -10.0222    1.0000 </r>
       <r>   -9.9950    1.0000 </r>
       <r>   -9.7596    1.0000 </r>
       <r>   -9.7159    1.0000 </r>
       <r>   -9.7139    1.0000 </r>
       <r>   -9.4515    1.0000 </r>
       <r>   -9.0972    1.0000 </r>
       <r>   -9.0942    1.0000 </r>
       <r>   -9.0579    1.0000 </r>
       <r>   -9.0564    1.0000 </r>
       <r>   -8.9487    1.0000 </r>
       <r>   -8.7313    1.0000 </r>
       <r>   -8.7256    1.0000 </r>
       <r>   -8.4572    1.0000 </r>
       <r>   -7.9658    1.0000 </r>
       <r>   -7.9615    1.0000 </r>
       <r>   -7.9082    1.0000 </r>
       <r>   -7.2582    1.0000 </r>
       <r>   -7.2541    1.0000 </r>
       <r>   -7.2436    1.0000 </r>
       <r>   -7.1963    1.0000 </r>
       <r>   -7.1902    1.0000 </r>
       <r>   -7.1352    1.0000 </r>
       <r>   -6.9845    1.0000 </r>
       <r>   -6.9795    1.0000 </r>
       <r>   -6.9745    1.0000 </r>
       <r>   -6.8810    1.0000 </r>
       <r>   -6.8796    1.0000 </r>
       <r>   -6.8174    1.0000 </r>
       <r>   -6.8159    1.0000 </r>
       <r>   -6.7281    1.0000 </r>
       <r>   -6.6961    1.0000 </r>
       <r>   -6.6922    1.0000 </r>
       <r>   -6.1483    1.0000 </r>
       <r>   -6.1320    1.0000 </r>
       <r>   -6.0224    1.0000 </r>
       <r>   -6.0193    1.0000 </r>
       <r>   -5.9447    1.0000 </r>
       <r>   -5.9374    1.0000 </r>
       <r>   -5.6176    1.0000 </r>
       <r>   -5.5813    1.0000 </r>
       <r>   -5.5755    1.0000 </r>
       <r>   -5.4637    1.0000 </r>
       <r>   -5.3920    1.0000 </r>
       <r>   -5.3833    1.0000 </r>
       <r>   -2.9019    0.0000 </r>
       <r>   -2.8986    0.0000 </r>
       <r>   -2.5883    0.0000 </r>
       <r>   -2.5819    0.0000 </r>
       <r>   -2.5705    0.0000 </r>
       <r>   -2.4989    0.0000 </r>
       <r>   -2.4920    0.0000 </r>
       <r>   -2.2421    0.0000 </r>
       <r>   -1.5116    0.0000 </r>
       <r>   -1.5024    0.0000 </r>
       <r>   -1.3676    0.0000 </r>
       <r>   -1.0366    0.0000 </r>
       <r>   -0.8895    0.0000 </r>
       <r>   -0.8861    0.0000 </r>
       <r>   -0.6654    0.0000 </r>
       <r>   -0.5872    0.0000 </r>
       <r>   -0.4192    0.0000 </r>
       <r>   -0.4163    0.0000 </r>
       <r>   -0.3725    0.0000 </r>
       <r>   -0.1757    0.0000 </r>
       <r>   -0.1723    0.0000 </r>
       <r>    0.2894    0.0000 </r>
       <r>    0.3431    0.0000 </r>
       <r>    0.3906    0.0000 </r>
       <r>    0.3948    0.0000 </r>
       <r>    0.5270    0.0000 </r>
       <r>    0.5347    0.0000 </r>
       <r>    0.5363    0.0000 </r>
       <r>    0.5499    0.0000 </r>
       <r>    0.6797    0.0000 </r>
       <r>    0.6851    0.0000 </r>
       <r>    0.6914    0.0000 </r>
       <r>    0.7659    0.0000 </r>
       <r>    0.7701    0.0000 </r>
       <r>    0.8972    0.0000 </r>
       <r>    0.9056    0.0000 </r>
       <r>    0.9192    0.0000 </r>
       <r>    0.9462    0.0000 </r>
       <r>    0.9529    0.0000 </r>
       <r>    0.9595    0.0000 </r>
       <r>    1.0324    0.0000 </r>
       <r>    1.1055    0.0000 </r>
       <r>    1.1131    0.0000 </r>
       <r>    1.1221    0.0000 </r>
       <r>    1.1556    0.0000 </r>
       <r>    1.1600    0.0000 </r>
       <r>    1.1637    0.0000 </r>
       <r>    1.2455    0.0000 </r>
       <r>    1.2569    0.0000 </r>
       <r>    1.2616    0.0000 </r>
       <r>    1.4192    0.0000 </r>
      </set>
      <set comment="kpoint 3">
       <r>  -26.2692    1.0000 </r>
       <r>  -26.2593    1.0000 </r>
       <r>  -26.2562    1.0000 </r>
       <r>  -26.1709    1.0000 </r>
       <r>  -26.1568    1.0000 </r>
       <r>  -26.1534    1.0000 </r>
       <r>  -26.1237    1.0000 </r>
       <r>  -26.1195    1.0000 </r>
       <r>  -26.1157    1.0000 </r>
       <r>  -25.0640    1.0000 </r>
       <r>  -25.0595    1.0000 </r>
       <r>  -25.0579    1.0000 </r>
       <r>  -24.0578    1.0000 </r>
       <r>  -24.0513    1.0000 </r>
       <r>  -24.0471    1.0000 </r>
       <r>  -23.2401    1.0000 </r>
       <r>  -23.2299    1.0000 </r>
       <r>  -23.2260    1.0000 </r>
       <r>  -22.8999    1.0000 </r>
       <r>  -22.8959    1.0000 </r>
       <r>  -22.8941    1.0000 </r>
       <r>  -22.5887    1.0000 </r>
       <r>  -22.5637    1.0000 </r>
       <r>  -22.5597    1.0000 </r>
       <r>  -21.9826    1.0000 </r>
       <r>  -21.9630    1.0000 </r>
       <r>  -19.9354    1.0000 </r>
       <r>  -19.9319    1.0000 </r>
       <r>  -19.5627    1.0000 </r>
       <r>  -19.5536    1.0000 </r>
       <r>  -19.4229    1.0000 </r>
       <r>  -18.9419    1.0000 </r>
       <r>  -18.9415    1.0000 </r>
       <r>  -17.5979    1.0000 </r>
       <r>  -17.5064    1.0000 </r>
       <r>  -17.5002    1.0000 </r>
       <r>  -17.2769    1.0000 </r>
       <r>  -17.2384    1.0000 </r>
       <r>  -17.2348    1.0000 </r>
       <r>  -16.3446    1.0000 </r>
       <r>  -16.3428    1.0000 </r>
       <r>  -15.9666    1.0000 </r>
       <r>  -15.7022    1.0000 </r>
       <r>  -15.6938    1.0000 </r>
       <r>  -15.1808    1.0000 </r>
       <r>  -15.1515    1.0000 </r>
       <r>  -15.1494    1.0000 </r>
       <r>  -15.0468    1.0000 </r>
       <r>  -15.0432    1.0000 </r>
       <r>  -14.8838    1.0000 </r>
       <r>  -14.6372    1.0000 </r>
       <r>  -14.1520    1.0000 </r>
       <r>  -14.1460    1.0000 </r>
       <r>  -14.1010    1.0000 </r>
       <r>  -13.9089    1.0000 </r>
       <r>  -13.9065    1.0000 </r>
       <r>  -13.8408    1.0000 </r>
       <r>  -13.8385    1.0000 </r>
       <r>  -13.7057    1.0000 </r>
       <r>  -13.3465    1.0000 </r>
       <r>  -13.2238    1.0000 </r>
       <r>  -13.2222    1.0000 </r>
       <r>  -13.0462    1.0000 </r>
       <r>  -12.9361    1.0000 </r>
       <r>  -12.6848    1.0000 </r>
       <r>  -12.6755    1.0000 </r>
       <r>  -12.2209    1.0000 </r>
       <r>  -12.0687    1.0000 </r>
       <r>  -11.9383    1.0000 </r>
       <r>  -11.9362    1.0000 </r>
       <r>  -11.8689    1.0000 </r>
       <r>  -11.6510    1.0000 </r>
       <r>  -11.6484    1.0000 </r>
       <r>  -11.6199    1.0000 </r>
       <r>  -11.3635    1.0000 </r>
       <r>  -11.3592    1.0000 </r>
       <r>  -11.2713    1.0000 </r>
       <r>  -11.2166    1.0000 </r>
       <r>  -11.1436    1.0000 </r>
       <r>  -11.1354    1.0000 </r>
       <r>  -10.9374    1.0000 </r>
       <r>  -10.8098    1.0000 </r>
       <r>  -10.8072    1.0000 </r>
       <r>  -10.6822    1.0000 </r>
       <r>  -10.6541    1.0000 </r>
       <r>  -10.6428    1.0000 </r>
       <r>  -10.5826    1.0000 </r>
       <r>  -10.3058    1.0000 </r>
       <r>  -10.3045    1.0000 </r>
       <r>  -10.2644    1.0000 </r>
       <r>  -10.2622    1.0000 </r>
       <r>  -10.2176    1.0000 </r>
       <r>  -10.1495    1.0000 </r>
       <r>  -10.1459    1.0000 </r>
       <r>  -10.0906    1.0000 </r>
       <r>  -10.0245    1.0000 </r>
       <r>  -10.0232    1.0000 </r>
       <r>   -9.9936    1.0000 </r>
       <r>   -9.7596    1.0000 </r>
       <r>   -9.7159    1.0000 </r>
       <r>   -9.7143    1.0000 </r>
       <r>   -9.4494    1.0000 </r>
       <r>   -9.0976    1.0000 </r>
       <r>   -9.0943    1.0000 </r>
       <r>   -9.0579    1.0000 </r>
       <r>   -9.0564    1.0000 </r>
       <r>   -8.9517    1.0000 </r>
       <r>   -8.7309    1.0000 </r>
       <r>   -8.7230    1.0000 </r>
       <r>   -8.4579    1.0000 </r>
       <r>   -7.9657    1.0000 </r>
       <r>   -7.9614    1.0000 </r>
       <r>   -7.9085    1.0000 </r>
       <r>   -7.2581    1.0000 </r>
       <r>   -7.2538    1.0000 </r>
       <r>   -7.2434    1.0000 </r>
       <r>   -7.1962    1.0000 </r>
       <r>   -7.1904    1.0000 </r>
       <r>   -7.1356    1.0000 </r>
       <r>   -6.9845    1.0000 </r>
       <r>   -6.9795    1.0000 </r>
       <r>   -6.9745    1.0000 </r>
       <r>   -6.8807    1.0000 </r>
       <r>   -6.8794    1.0000 </r>
       <r>   -6.8175    1.0000 </r>
       <r>   -6.8160    1.0000 </r>
       <r>   -6.7280    1.0000 </r>
       <r>   -6.6962    1.0000 </r>
       <r>   -6.6923    1.0000 </r>
       <r>   -6.1483    1.0000 </r>
       <r>   -6.1320    1.0000 </r>
       <r>   -6.0224    1.0000 </r>
       <r>   -6.0190    1.0000 </r>
       <r>   -5.9447    1.0000 </r>
       <r>   -5.9378    1.0000 </r>
       <r>   -5.6175    1.0000 </r>
       <r>   -5.5813    1.0000 </r>
       <r>   -5.5757    1.0000 </r>
       <r>   -5.4633    1.0000 </r>
       <r>   -5.3920    1.0000 </r>
       <r>   -5.3836    1.0000 </r>
       <r>   -2.9019    0.0000 </r>
       <r>   -2.8980    0.0000 </r>
       <r>   -2.5972    0.0000 </r>
       <r>   -2.5820    0.0000 </r>
       <r>   -2.5634    0.0000 </r>
       <r>   -2.4989    0.0000 </r>
       <r>   -2.4920    0.0000 </r>
       <r>   -2.2391    0.0000 </r>
       <r>   -1.5184    0.0000 </r>
       <r>   -1.5076    0.0000 </r>
       <r>   -1.3564    0.0000 </r>
       <r>   -1.0368    0.0000 </r>
       <r>   -0.8893    0.0000 </r>
       <r>   -0.8856    0.0000 </r>
       <r>   -0.6649    0.0000 </r>
       <r>   -0.5887    0.0000 </r>
       <r>   -0.4213    0.0000 </r>
       <r>   -0.4184    0.0000 </r>
       <r>   -0.3697    0.0000 </r>
       <r>   -0.1754    0.0000 </r>
       <r>   -0.1718    0.0000 </r>
       <r>    0.2898    0.0000 </r>
       <r>    0.3427    0.0000 </r>
       <r>    0.3912    0.0000 </r>
       <r>    0.3957    0.0000 </r>
       <r>    0.5263    0.0000 </r>
       <r>    0.5335    0.0000 </r>
       <r>    0.5354    0.0000 </r>
       <r>    0.5513    0.0000 </r>
       <r>    0.6748    0.0000 </r>
       <r>    0.6850    0.0000 </r>
       <r>    0.6977    0.0000 </r>
       <r>    0.7658    0.0000 </r>
       <r>    0.7692    0.0000 </r>
       <r>    0.8846    0.0000 </r>
       <r>    0.9046    0.0000 </r>
       <r>    0.9252    0.0000 </r>
       <r>    0.9436    0.0000 </r>
       <r>    0.9568    0.0000 </r>
       <r>    0.9644    0.0000 </r>
       <r>    1.0344    0.0000 </r>
       <r>    1.0979    0.0000 </r>
       <r>    1.1118    0.0000 </r>
       <r>    1.1291    0.0000 </r>
       <r>    1.1549    0.0000 </r>
       <r>    1.1599    0.0000 </r>
       <r>    1.1661    0.0000 </r>
       <r>    1.2413    0.0000 </r>
       <r>    1.2590    0.0000 </r>
       <r>    1.2715    0.0000 </r>
       <r>    1.4185    0.0000 </r>
      </set>
      <set comment="kpoint 4">
       <r>  -26.2691    1.0000 </r>
       <r>  -26.2593    1.0000 </r>
       <r>  -26.2562    1.0000 </r>
       <r>  -26.1709    1.0000 </r>
       <r>  -26.1568    1.0000 </r>
       <r>  -26.1535    1.0000 </r>
       <r>  -26.1236    1.0000 </r>
       <r>  -26.1195    1.0000 </r>
       <r>  -26.1157    1.0000 </r>
       <r>  -25.0640    1.0000 </r>
       <r>  -25.0595    1.0000 </r>
       <r>  -25.0579    1.0000 </r>
       <r>  -24.0578    1.0000 </r>
       <r>  -24.0512    1.0000 </r>
       <r>  -24.0471    1.0000 </r>
       <r>  -23.2400    1.0000 </r>
       <r>  -23.2299    1.0000 </r>
       <r>  -23.2261    1.0000 </r>
       <r>  -22.8999    1.0000 </r>
       <r>  -22.8959    1.0000 </r>
       <r>  -22.8941    1.0000 </r>
       <r>  -22.5885    1.0000 </r>
       <r>  -22.5637    1.0000 </r>
       <r>  -22.5599    1.0000 </r>
       <r>  -21.9826    1.0000 </r>
       <r>  -21.9630    1.0000 </r>
       <r>  -19.9352    1.0000 </r>
       <r>  -19.9305    1.0000 </r>
       <r>  -19.5733    1.0000 </r>
       <r>  -19.5536    1.0000 </r>
       <r>  -19.4116    1.0000 </r>
       <r>  -18.9445    1.0000 </r>
       <r>  -18.9415    1.0000 </r>
       <r>  -17.5970    1.0000 </r>
       <r>  -17.5066    1.0000 </r>
       <r>  -17.5005    1.0000 </r>
       <r>  -17.2768    1.0000 </r>
       <r>  -17.2385    1.0000 </r>
       <r>  -17.2350    1.0000 </r>
       <r>  -16.3445    1.0000 </r>
       <r>  -16.3413    1.0000 </r>
       <r>  -15.9738    1.0000 </r>
       <r>  -15.7023    1.0000 </r>
       <r>  -15.6860    1.0000 </r>
       <r>  -15.1816    1.0000 </r>
       <r>  -15.1516    1.0000 </r>
       <r>  -15.1496    1.0000 </r>
       <r>  -15.0520    1.0000 </r>
       <r>  -15.0432    1.0000 </r>
       <r>  -14.8796    1.0000 </r>
       <r>  -14.6363    1.0000 </r>
       <r>  -14.1525    1.0000 </r>
       <r>  -14.1464    1.0000 </r>
       <r>  -14.1021    1.0000 </r>
       <r>  -13.9087    1.0000 </r>
       <r>  -13.9064    1.0000 </r>
       <r>  -13.8416    1.0000 </r>
       <r>  -13.8385    1.0000 </r>
       <r>  -13.7044    1.0000 </r>
       <r>  -13.3465    1.0000 </r>
       <r>  -13.2238    1.0000 </r>
       <r>  -13.2221    1.0000 </r>
       <r>  -13.0462    1.0000 </r>
       <r>  -12.9347    1.0000 </r>
       <r>  -12.6856    1.0000 </r>
       <r>  -12.6768    1.0000 </r>
       <r>  -12.2197    1.0000 </r>
       <r>  -12.0694    1.0000 </r>
       <r>  -11.9382    1.0000 </r>
       <r>  -11.9357    1.0000 </r>
       <r>  -11.8694    1.0000 </r>
       <r>  -11.6510    1.0000 </r>
       <r>  -11.6484    1.0000 </r>
       <r>  -11.6199    1.0000 </r>
       <r>  -11.3634    1.0000 </r>
       <r>  -11.3588    1.0000 </r>
       <r>  -11.2719    1.0000 </r>
       <r>  -11.2164    1.0000 </r>
       <r>  -11.1438    1.0000 </r>
       <r>  -11.1357    1.0000 </r>
       <r>  -10.9366    1.0000 </r>
       <r>  -10.8098    1.0000 </r>
       <r>  -10.8061    1.0000 </r>
       <r>  -10.6838    1.0000 </r>
       <r>  -10.6614    1.0000 </r>
       <r>  -10.6432    1.0000 </r>
       <r>  -10.5735    1.0000 </r>
       <r>  -10.3059    1.0000 </r>
       <r>  -10.3043    1.0000 </r>
       <r>  -10.2652    1.0000 </r>
       <r>  -10.2627    1.0000 </r>
       <r>  -10.2174    1.0000 </r>
       <r>  -10.1494    1.0000 </r>
       <r>  -10.1457    1.0000 </r>
       <r>  -10.0908    1.0000 </r>
       <r>  -10.0276    1.0000 </r>
       <r>  -10.0233    1.0000 </r>
       <r>   -9.9916    1.0000 </r>
       <r>   -9.7597    1.0000 </r>
       <r>   -9.7160    1.0000 </r>
       <r>   -9.7150    1.0000 </r>
       <r>   -9.4460    1.0000 </r>
       <r>   -9.0983    1.0000 </r>
       <r>   -9.0945    1.0000 </r>
       <r>   -9.0579    1.0000 </r>
       <r>   -9.0564    1.0000 </r>
       <r>   -8.9566    1.0000 </r>
       <r>   -8.7306    1.0000 </r>
       <r>   -8.7184    1.0000 </r>
       <r>   -8.4590    1.0000 </r>
       <r>   -7.9656    1.0000 </r>
       <r>   -7.9612    1.0000 </r>
       <r>   -7.9090    1.0000 </r>
       <r>   -7.2580    1.0000 </r>
       <r>   -7.2535    1.0000 </r>
       <r>   -7.2432    1.0000 </r>
       <r>   -7.1961    1.0000 </r>
       <r>   -7.1906    1.0000 </r>
       <r>   -7.1363    1.0000 </r>
       <r>   -6.9846    1.0000 </r>
       <r>   -6.9795    1.0000 </r>
       <r>   -6.9745    1.0000 </r>
       <r>   -6.8803    1.0000 </r>
       <r>   -6.8790    1.0000 </r>
       <r>   -6.8178    1.0000 </r>
       <r>   -6.8163    1.0000 </r>
       <r>   -6.7277    1.0000 </r>
       <r>   -6.6962    1.0000 </r>
       <r>   -6.6926    1.0000 </r>
       <r>   -6.1483    1.0000 </r>
       <r>   -6.1320    1.0000 </r>
       <r>   -6.0223    1.0000 </r>
       <r>   -6.0184    1.0000 </r>
       <r>   -5.9447    1.0000 </r>
       <r>   -5.9385    1.0000 </r>
       <r>   -5.6172    1.0000 </r>
       <r>   -5.5814    1.0000 </r>
       <r>   -5.5759    1.0000 </r>
       <r>   -5.4627    1.0000 </r>
       <r>   -5.3920    1.0000 </r>
       <r>   -5.3840    1.0000 </r>
       <r>   -2.9019    0.0000 </r>
       <r>   -2.8969    0.0000 </r>
       <r>   -2.6069    0.0000 </r>
       <r>   -2.5820    0.0000 </r>
       <r>   -2.5568    0.0000 </r>
       <r>   -2.4989    0.0000 </r>
       <r>   -2.4920    0.0000 </r>
       <r>   -2.2343    0.0000 </r>
       <r>   -1.5340    0.0000 </r>
       <r>   -1.5087    0.0000 </r>
       <r>   -1.3408    0.0000 </r>
       <r>   -1.0372    0.0000 </r>
       <r>   -0.8891    0.0000 </r>
       <r>   -0.8846    0.0000 </r>
       <r>   -0.6642    0.0000 </r>
       <r>   -0.5911    0.0000 </r>
       <r>   -0.4270    0.0000 </r>
       <r>   -0.4189    0.0000 </r>
       <r>   -0.3660    0.0000 </r>
       <r>   -0.1749    0.0000 </r>
       <r>   -0.1708    0.0000 </r>
       <r>    0.2904    0.0000 </r>
       <r>    0.3421    0.0000 </r>
       <r>    0.3918    0.0000 </r>
       <r>    0.3976    0.0000 </r>
       <r>    0.5247    0.0000 </r>
       <r>    0.5322    0.0000 </r>
       <r>    0.5345    0.0000 </r>
       <r>    0.5531    0.0000 </r>
       <r>    0.6704    0.0000 </r>
       <r>    0.6850    0.0000 </r>
       <r>    0.7041    0.0000 </r>
       <r>    0.7655    0.0000 </r>
       <r>    0.7676    0.0000 </r>
       <r>    0.8719    0.0000 </r>
       <r>    0.9029    0.0000 </r>
       <r>    0.9268    0.0000 </r>
       <r>    0.9415    0.0000 </r>
       <r>    0.9623    0.0000 </r>
       <r>    0.9711    0.0000 </r>
       <r>    1.0375    0.0000 </r>
       <r>    1.0909    0.0000 </r>
[...]
       <r>   -26.8414     0.0000     0.0000 </r>
       <r>   -26.7399     0.0000     0.0000 </r>
       <r>   -26.6384     0.0000     0.0000 </r>
       <r>   -26.5369     0.0000     0.0000 </r>
       <r>   -26.4353     0.0000     0.0000 </r>
       <r>   -26.3338     0.0000     0.0000 </r>
       <r>   -26.2323    59.0926     5.9994 </r>
       <r>   -26.1308    63.2039    12.4168 </r>
       <r>   -26.0292     0.0000    18.0000 </r>
       <r>   -25.9277     0.0000    18.0000 </r>
       <r>   -25.8262     0.0000    18.0000 </r>
       <r>   -25.7247     0.0000    18.0000 </r>
       <r>   -25.6231     0.0000    18.0000 </r>
       <r>   -25.5216     0.0000    18.0000 </r>
       <r>   -25.4201     0.0000    18.0000 </r>
       <r>   -25.3186     0.0000    18.0000 </r>
       <r>   -25.2170     0.0000    18.0000 </r>
       <r>   -25.1155     0.0000    18.0000 </r>
       <r>   -25.0140    59.0989    24.0000 </r>
       <r>   -24.9125     0.0000    24.0000 </r>
       <r>   -24.8109     0.0000    24.0000 </r>
       <r>   -24.7094     0.0000    24.0000 </r>
       <r>   -24.6079     0.0000    24.0000 </r>
       <r>   -24.5064     0.0000    24.0000 </r>
       <r>   -24.4048     0.0000    24.0000 </r>
       <r>   -24.3033     0.0000    24.0000 </r>
       <r>   -24.2018     0.0000    24.0000 </r>
       <r>   -24.1003     0.0000    24.0000 </r>
       <r>   -23.9987    59.0989    30.0000 </r>
       <r>   -23.8972     0.0000    30.0000 </r>
       <r>   -23.7957     0.0000    30.0000 </r>
       <r>   -23.6942     0.0000    30.0000 </r>
       <r>   -23.5926     0.0000    30.0000 </r>
       <r>   -23.4911     0.0000    30.0000 </r>
       <r>   -23.3896     0.0000    30.0000 </r>
       <r>   -23.2881     0.0000    30.0000 </r>
       <r>   -23.1865    59.0989    36.0000 </r>
       <r>   -23.0850     0.0000    36.0000 </r>
       <r>   -22.9835     0.0000    36.0000 </r>
       <r>   -22.8820    57.6667    41.8546 </r>
       <r>   -22.7804     0.0000    42.0000 </r>
       <r>   -22.6789     0.0000    42.0000 </r>
       <r>   -22.5774    17.2424    43.7505 </r>
       <r>   -22.4759     0.0000    48.0000 </r>
       <r>   -22.3743     0.0000    48.0000 </r>
       <r>   -22.2728     0.0000    48.0000 </r>
       <r>   -22.1713     0.0000    48.0000 </r>
       <r>   -22.0698     0.0000    48.0000 </r>
       <r>   -21.9682    24.8697    50.5249 </r>
       <r>   -21.8667     0.0000    52.0000 </r>
       <r>   -21.7652     0.0000    52.0000 </r>
       <r>   -21.6637     0.0000    52.0000 </r>
       <r>   -21.5621     0.0000    52.0000 </r>
       <r>   -21.4606     0.0000    52.0000 </r>
       <r>   -21.3591     0.0000    52.0000 </r>
       <r>   -21.2576     0.0000    52.0000 </r>
       <r>   -21.1560     0.0000    52.0000 </r>
       <r>   -21.0545     0.0000    52.0000 </r>
       <r>   -20.9530     0.0000    52.0000 </r>
       <r>   -20.8515     0.0000    52.0000 </r>
       <r>   -20.7499     0.0000    52.0000 </r>
       <r>   -20.6484     0.0000    52.0000 </r>
       <r>   -20.5469     0.0000    52.0000 </r>
       <r>   -20.4454     0.0000    52.0000 </r>
       <r>   -20.3438     0.0000    52.0000 </r>
       <r>   -20.2423     0.0000    52.0000 </r>
       <r>   -20.1408     0.0000    52.0000 </r>
       <r>   -20.0393     0.0000    52.0000 </r>
       <r>   -19.9377     7.0983    52.7207 </r>
       <r>   -19.8362    12.1139    55.7299 </r>
       <r>   -19.7347    10.2510    57.0407 </r>
       <r>   -19.6332     3.7332    57.5124 </r>
       <r>   -19.5316    23.6181    59.9978 </r>
       <r>   -19.4301     0.8556    60.0869 </r>
       <r>   -19.3286     3.1285    60.5510 </r>
       <r>   -19.2271     3.0574    60.9437 </r>
       <r>   -19.1255     9.3253    61.9801 </r>
       <r>   -19.0240     9.3740    63.1184 </r>
       <r>   -18.9225    26.8314    65.9907 </r>
       <r>   -18.8210     0.0000    66.0000 </r>
       <r>   -18.7194     0.0000    66.0000 </r>
       <r>   -18.6179     0.0000    66.0000 </r>
       <r>   -18.5164     0.0000    66.0000 </r>
       <r>   -18.4149     0.0000    66.0000 </r>
       <r>   -18.3134     0.0000    66.0000 </r>
       <r>   -18.2118     0.0000    66.0000 </r>
       <r>   -18.1103     0.0000    66.0000 </r>
       <r>   -18.0088     0.0000    66.0000 </r>
       <r>   -17.9073     0.0000    66.0000 </r>
       <r>   -17.8057     0.0000    66.0000 </r>
       <r>   -17.7042     0.0000    66.0000 </r>
       <r>   -17.6027     0.8759    66.0889 </r>
       <r>   -17.5012    42.6116    70.9929 </r>
       <r>   -17.3996     0.0000    72.0000 </r>
       <r>   -17.2981     0.0070    72.0007 </r>
       <r>   -17.1966    56.4689    78.0000 </r>
       <r>   -17.0951     0.0000    78.0000 </r>
       <r>   -16.9935     0.0000    78.0000 </r>
       <r>   -16.8920     0.0000    78.0000 </r>
       <r>   -16.7905     0.0000    78.0000 </r>
       <r>   -16.6890     0.0000    78.0000 </r>
       <r>   -16.5874     0.0000    78.0000 </r>
       <r>   -16.4859     0.0000    78.0000 </r>
       <r>   -16.3844     0.0000    78.0000 </r>
       <r>   -16.2829    28.9895    80.9432 </r>
       <r>   -16.1813     7.4188    82.1533 </r>
       <r>   -16.0798     7.5460    83.2661 </r>
       <r>   -15.9783     3.8130    83.7538 </r>
       <r>   -15.8768     0.0000    84.0000 </r>
       <r>   -15.7752     0.0000    84.0000 </r>
       <r>   -15.6737    22.5684    86.2913 </r>
       <r>   -15.5722     3.0924    86.7140 </r>
       <r>   -15.4707     7.4956    87.5610 </r>
       <r>   -15.3691     0.0000    88.0000 </r>
       <r>   -15.2676     7.9450    88.8066 </r>
       <r>   -15.1661    11.6662    90.2511 </r>
       <r>   -15.0646    16.5377    95.6790 </r>
       <r>   -14.9630    19.0378    98.0000 </r>
       <r>   -14.8615     4.0428    98.4104 </r>
       <r>   -14.7600    13.4613   100.0000 </r>
       <r>   -14.6585     0.0040   100.0004 </r>
       <r>   -14.5569    17.7287   102.0000 </r>
       <r>   -14.4554     0.0000   102.0000 </r>
       <r>   -14.3539     0.0000   102.0000 </r>
       <r>   -14.2524     0.0000   102.0000 </r>
       <r>   -14.1508    30.5389   105.1004 </r>
       <r>   -14.0493    13.4599   108.0000 </r>
       <r>   -13.9478     0.0000   108.0000 </r>
       <r>   -13.8463    56.6422   113.7506 </r>
       <r>   -13.7447     0.0000   116.0000 </r>
       <r>   -13.6432    19.6992   118.0000 </r>
       <r>   -13.5417     0.0000   118.0000 </r>
       <r>   -13.4402     0.0000   118.0000 </r>
       <r>   -13.3386    17.0090   119.7268 </r>
       <r>   -13.2371     0.8493   120.0862 </r>
       <r>   -13.1356     0.0000   124.0000 </r>
       <r>   -13.0341    18.8919   125.9180 </r>
       <r>   -12.9325     2.4960   126.2534 </r>
       <r>   -12.8310    13.4609   128.0000 </r>
       <r>   -12.7295    11.7233   129.1902 </r>
       <r>   -12.6280    25.6092   132.0000 </r>
       <r>   -12.5264     0.0000   132.0000 </r>
       <r>   -12.4249     0.0000   132.0000 </r>
       <r>   -12.3234     0.0000   132.0000 </r>
       <r>   -12.2219     1.5501   132.1574 </r>
       <r>   -12.1203    13.1332   134.0001 </r>
       <r>   -12.0188    19.6990   136.0000 </r>
       <r>   -11.9173    30.2329   139.0694 </r>
       <r>   -11.8158    17.3998   142.0000 </r>
       <r>   -11.7142     0.0000   142.0000 </r>
       <r>   -11.6127    56.5171   147.7379 </r>
       <r>   -11.5112     0.0000   148.0000 </r>
       <r>   -11.4097     0.0000   148.0000 </r>
       <r>   -11.3081    39.5117   152.0114 </r>
       <r>   -11.2066    20.6285   155.1944 </r>
       <r>   -11.1051    39.3992   160.0000 </r>
       <r>   -11.0036     0.0000   160.0000 </r>
       <r>   -10.9020    11.0332   161.1201 </r>
       <r>   -10.8005    25.1828   164.5567 </r>
       <r>   -10.6990    23.9076   168.4272 </r>
       <r>   -10.5975    23.5435   172.0236 </r>
       <r>   -10.4959     4.4484   172.6516 </r>
       <r>   -10.3944    11.3793   173.9220 </r>
       <r>   -10.2929    37.4179   177.7988 </r>
       <r>   -10.1914    35.7678   183.9984 </r>
       <r>   -10.0898    56.4578   189.7319 </r>
       <r>    -9.9883    32.4664   194.3296 </r>
       <r>    -9.8868     0.0000   196.0000 </r>
       <r>    -9.7853     0.0076   196.0008 </r>
       <r>    -9.6837    59.0912   202.0000 </r>
       <r>    -9.5822     0.0000   202.0000 </r>
       <r>    -9.4807     0.0000   202.0000 </r>
       <r>    -9.3792     7.2220   202.7332 </r>
       <r>    -9.2776    11.1391   203.9976 </r>
       <r>    -9.1761     5.4757   204.5559 </r>
       <r>    -9.0746    29.3990   208.0181 </r>
       <r>    -8.9731    16.1369   213.6383 </r>
       <r>    -8.8715     1.3130   214.0000 </r>
       <r>    -8.7700     0.0000   214.0000 </r>
       <r>    -8.6685    25.5237   216.5913 </r>
       <r>    -8.5670    11.9448   217.9460 </r>
       <r>    -8.4655    15.9699   219.6213 </r>
       <r>    -8.3639     0.0000   220.0000 </r>
       <r>    -8.2624     0.0000   220.0000 </r>
       <r>    -8.1609     0.0000   220.0000 </r>
       <r>    -8.0594     0.0000   220.0000 </r>
       <r>    -7.9578    22.1136   222.2451 </r>
       <r>    -7.8563    19.6987   226.0000 </r>
       <r>    -7.7548     0.0000   226.0000 </r>
       <r>    -7.6533     0.0000   226.0000 </r>
       <r>    -7.5517     0.0000   226.0000 </r>
       <r>    -7.4502     0.0000   226.0000 </r>
       <r>    -7.3487     0.0000   226.0000 </r>
       <r>    -7.2472    28.5003   228.8935 </r>
       <r>    -7.1456    53.1312   237.3941 </r>
       <r>    -7.0441     0.0000   238.0000 </r>
       <r>    -6.9426    59.0988   244.0000 </r>
       <r>    -6.8411    42.7945   248.3447 </r>
       <r>    -6.7395    14.7109   252.0277 </r>
       <r>    -6.6380    44.3207   258.0000 </r>
       <r>    -6.5365     0.0000   258.0000 </r>
       <r>    -6.4350     0.0000   258.0000 </r>
       <r>    -6.3334     0.0000   258.0000 </r>
       <r>    -6.2319     0.0000   258.0000 </r>
       <r>    -6.1304    31.6569   261.2140 </r>
       <r>    -6.0289     3.2257   262.3275 </r>
       <r>    -5.9273    51.7164   269.9506 </r>
       <r>    -5.8258     0.0000   270.0000 </r>
       <r>    -5.7243     0.0000   270.0000 </r>
       <r>    -5.6228     1.3871   270.1408 </r>
       <r>    -5.5212    39.3992   276.0000 </r>
       <r>    -5.4197    20.7428   278.1059 </r>
       <r>    -5.3182    27.5784   282.0000 </r>
       <r>    -5.2167     0.0000   282.0000 </r>
       <r>    -5.1151     0.0000   282.0000 </r>
       <r>    -5.0136     0.0000   282.0000 </r>
       <r>    -4.9121     0.0000   282.0000 </r>
       <r>    -4.8106     0.0000   282.0000 </r>
       <r>    -4.7090     0.0000   282.0000 </r>
       <r>    -4.6075     0.0000   282.0000 </r>
       <r>    -4.5060     0.0000   282.0000 </r>
       <r>    -4.4045     0.0000   282.0000 </r>
       <r>    -4.3029     0.0000   282.0000 </r>
       <r>    -4.2014     0.0000   282.0000 </r>
       <r>    -4.0999     0.0000   282.0000 </r>
       <r>    -3.9984     0.0000   282.0000 </r>
       <r>    -3.8968     0.0000   282.0000 </r>
       <r>    -3.7953     0.0000   282.0000 </r>
       <r>    -3.6938     0.0000   282.0000 </r>
       <r>    -3.5923     0.0000   282.0000 </r>
       <r>    -3.4907     0.0000   282.0000 </r>
       <r>    -3.3892     0.0000   282.0000 </r>
       <r>    -3.2877     0.0000   282.0000 </r>
       <r>    -3.1862     0.0000   282.0000 </r>
       <r>    -3.0846     0.0000   282.0000 </r>
       <r>    -2.9831     0.0000   282.0000 </r>
       <r>    -2.8816    25.4552   284.5843 </r>
       <r>    -2.7801    10.5095   286.0003 </r>
       <r>    -2.6785    11.7546   287.3601 </r>
       <r>    -2.5770    20.4025   289.5714 </r>
       <r>    -2.4755    56.5929   295.9789 </r>
       <r>    -2.3740     0.0000   296.0000 </r>
       <r>    -2.2724     0.0000   296.0000 </r>
       <r>    -2.1709     5.8949   296.5985 </r>
       <r>    -2.0694     3.5438   297.0598 </r>
       <r>    -1.9679     5.5812   298.0000 </r>
       <r>    -1.8663     1.8078   298.1835 </r>
       <r>    -1.7648     6.6435   299.1078 </r>
       <r>    -1.6633     2.0488   299.4080 </r>
       <r>    -1.5618     2.2159   299.6917 </r>
       <r>    -1.4602    21.9979   302.0000 </r>
       <r>    -1.3587     1.3865   302.1408 </r>
       <r>    -1.2572     2.6015   302.4975 </r>
       <r>    -1.1557     3.2019   302.8917 </r>
       <r>    -1.0541    20.0808   305.0720 </r>
       <r>    -0.9526     0.0000   306.0000 </r>
       <r>    -0.8511    27.2078   308.7623 </r>
       <r>    -0.7496    11.5162   310.1025 </r>
       <r>    -0.6480    16.3654   311.9948 </r>
       <r>    -0.5465     8.1853   314.1977 </r>
       <r>    -0.4450     6.3801   315.6478 </r>
       <r>    -0.3435    15.4548   318.6027 </r>
       <r>    -0.2419     2.9526   320.0000 </r>
       <r>    -0.1404    35.3373   323.5876 </r>
       <r>    -0.0389     0.0000   324.0000 </r>
       <r>     0.0626     0.0000   324.0000 </r>
       <r>     0.1642     0.0000   324.0000 </r>
       <r>     0.2657     0.0010   324.0001 </r>
       <r>     0.3672    39.4328   328.0035 </r>
       <r>     0.4687    28.3847   332.0488 </r>
       <r>     0.5703    53.5851   338.6404 </r>
       <r>     0.6718    31.0436   342.1184 </r>
       <r>     0.7733    55.4498   349.7629 </r>
       <r>     0.8748    16.8227   353.1747 </r>
       <r>     0.9763    54.9239   359.1095 </r>
       <r>     1.0779    46.7888   365.1836 </r>
       <r>     1.1794    47.8635   372.0928 </r>
       <r>     1.2809    50.6884   378.0462 </r>
       <r>     1.3824    30.2911   381.9753 </r>
       <r>     1.4840    12.4752   384.0000 </r>
       <r>     1.5855     0.0000   384.0000 </r>
       <r>     1.6870     0.0000   384.0000 </r>
       <r>     1.7885     0.0000   384.0000 </r>
       <r>     1.8901     0.0000   384.0000 </r>
       <r>     1.9916     0.0000   384.0000 </r>
       <r>     2.0931     0.0000   384.0000 </r>
       <r>     2.1946     0.0000   384.0000 </r>
       <r>     2.2962     0.0000   384.0000 </r>
       <r>     2.3977     0.0000   384.0000 </r>
       <r>     2.4992     0.0000   384.0000 </r>
       <r>     2.6007     0.0000   384.0000 </r>
       <r>     2.7023     0.0000   384.0000 </r>
       <r>     2.8038     0.0000   384.0000 </r>
      </set>
     </set>
    </array>
   </total>
  </dos>
 </calculation>
 <structure name="finalpos" >
  <crystal>
   <varray name="basis" >
    <v>      21.88744302       0.02567038       0.00000000 </v>
    <v>     -10.92150507      18.93056993       0.00000000 </v>
    <v>       0.00000000       0.00000000      20.00000000 </v>
   </varray>
   <i name="volume">   8292.44259514 </i>
   <varray name="rec_basis" >
    <v>       0.04565740       0.02634086       0.00000000 </v>
    <v>      -0.00006191       0.05278889       0.00000000 </v>
    <v>       0.00000000       0.00000000       0.05000000 </v>
   </varray>
  </crystal>
  <varray name="positions" >
   <v>       0.26327977       0.61540180       0.54299295 </v>
   <v>       0.31309466       0.59297000       0.54359901 </v>
   <v>       0.38522252       0.64186201       0.54366871 </v>
   <v>       0.40746155       0.71409861       0.54414441 </v>
   <v>       0.28646521       0.68764343       0.54358816 </v>
   <v>       0.18724136       0.55792490       0.53826258 </v>
   <v>       0.44279449       0.62321355       0.53961063 </v>
   <v>       0.74099307       0.38570219       0.42731308 </v>
   <v>       0.68698126       0.40242222       0.42703826 </v>
   <v>       0.61624824       0.34928921       0.42809338 </v>
   <v>       0.59966617       0.27855043       0.42865294 </v>
   <v>       0.72338802       0.31483257       0.42802958 </v>
   <v>       0.81505841       0.44729974       0.43319926 </v>
   <v>       0.55477504       0.36194879       0.43491668 </v>
   <v>       0.53971203       0.06574128       0.46234367 </v>
   <v>       0.46684969       0.01854837       0.45085514 </v>
   <v>       0.42196954       0.03989199       0.40994961 </v>
   <v>       0.93603362       0.46789035       0.45926059 </v>
   <v>       0.98334702       0.44200285       0.44901103 </v>
   <v>       0.96240043       0.37520136       0.40916877 </v>
   <v>       0.53388039       0.46217276       0.46167862 </v>
   <v>       0.55849779       0.53493426       0.44995251 </v>
   <v>       0.62417516       0.58054941       0.40872198 </v>
   <v>       0.35856573       0.73747492       0.54362142 </v>
   <v>       0.37709292       0.81369756       0.53945764 </v>
   <v>       0.65280763       0.26082020       0.42901469 </v>
   <v>       0.64041312       0.18679184       0.43674750 </v>
   <v>       0.54782294       0.97791175       0.51532756 </v>
   <v>       0.47594155       0.93084140       0.50315517 </v>
   <v>       0.02346416       0.56470425       0.51128443 </v>
   <v>       0.07060870       0.53958773       0.50042108 </v>
   <v>       0.43784352       0.45296621       0.51519618 </v>
   <v>       0.46164370       0.52475397       0.50282330 </v>
   <v>       0.33290663       0.83180683       0.54889176 </v>
   <v>       0.16903053       0.49569767       0.54846504 </v>
   <v>       0.50492434       0.66738349       0.54934230 </v>
   <v>       0.68961478       0.17496690       0.44051460 </v>
   <v>       0.82698929       0.50848214       0.43529058 </v>
   <v>       0.49372142       0.31281999       0.43723045 </v>
   <v>       0.39758604       0.01276902       0.35561755 </v>
   <v>       0.98970755       0.37713772       0.35514499 </v>
   <v>       0.62077464       0.60510300       0.35469823 </v>
   <v>       0.43596067       0.95152425       0.47079641 </v>
   <v>       0.41682586       0.09575997       0.43569272 </v>
   <v>       0.56981663       0.13565783       0.44124489 </v>
   <v>       0.05016095       0.47837594       0.46919428 </v>
   <v>       0.90667837       0.31463258       0.43540653 </v>
   <v>       0.86621689       0.42774946       0.43823475 </v>
   <v>       0.52179682       0.56520247       0.47006704 </v>
   <v>       0.68562625       0.58635218       0.43383756 </v>
   <v>       0.57423271       0.43261719       0.44050768 </v>
   <v>       0.57938914       0.04459531       0.49479576 </v>
   <v>       0.44657139       0.86005276       0.52245898 </v>
   <v>       0.95697016       0.52927535       0.49060667 </v>
   <v>       0.14119462       0.58112841       0.51988687 </v>
   <v>       0.47351785       0.42198682       0.49454618 </v>
   <v>       0.41988443       0.55368546       0.52241170 </v>
   <v>       0.46446405       0.74954543       0.54461997 </v>
   <v>       0.25094763       0.70923726       0.54383172 </v>
   <v>       0.29152567       0.53586354       0.54372468 </v>
   <v>       0.54350815       0.23969484       0.43096042 </v>
   <v>       0.76228509       0.29746157       0.43000905 </v>
   <v>       0.70429381       0.45872547       0.42803757 </v>
   <v>       0.42064136       0.10404308       0.48587860 </v>
   <v>       0.38473714       0.10924205       0.41076124 </v>
   <v>       0.53411581       0.15051358       0.42828968 </v>
   <v>       0.89816231       0.31090978       0.48555383 </v>
   <v>       0.89337468       0.26868353       0.41123971 </v>
   <v>       0.85133920       0.37685653       0.42660130 </v>
   <v>       0.69061624       0.58271837       0.48397985 </v>
   <v>       0.73074116       0.61904165       0.40867939 </v>
   <v>       0.62480154       0.46867097       0.42826891 </v>
   <v>       0.58028598       0.96111528       0.54268110 </v>
   <v>       0.48035548       0.84096847       0.52265511 </v>
   <v>       0.03997032       0.61441006       0.53774073 </v>
   <v>       0.16036558       0.63400705       0.51904586 </v>
   <v>       0.38898103       0.42011472       0.54285274 </v>
   <v>       0.36715041       0.51973362       0.52241980 </v>
  </varray>
 </structure>
</modeling>
