<?xml version="1.0" encoding="ISO-8859-1"?>
<modeling>
 <generator>
  <i name="program" type="string">vasp </i>
  <i name="version" type="string">5.4.4.18Apr17-6-g9f103f2a35  </i>
  <i name="subversion" type="string">(build Jun 07 2020 16:50:00) complex            parallel </i>
  <i name="platform" type="string">LinuxIFC </i>
  <i name="date" type="string">2023 02 17 </i>
  <i name="time" type="string">18:13:02 </i>
 </generator>
 <incar>
  <i type="string" name="SYSTEM">Simulation for cell shape cell volume r</i>
  <i type="int" name="ISTART">     1</i>
  <i type="string" name="PREC">high</i>
  <i type="string" name="ALGO">48</i>
  <i type="int" name="ICHARG">    11</i>
  <i type="int" name="NELM">   200</i>
  <i type="int" name="IBRION">    -1</i>
  <i name="EDIFF">      0.00001000</i>
  <i name="EDIFFG">     -0.01000000</i>
  <i type="int" name="NSW">     0</i>
  <i type="int" name="ISIF">     2</i>
  <i name="ENCUT">    500.00000000</i>
  <i name="POTIM">      0.30000000</i>
  <i type="string" name="LREAL">A</i>
  <i type="int" name="ISMEAR">     0</i>
  <i name="SIGMA">      0.01000000</i>
  <i type="int" name="NWRITE">     0</i>
  <i type="logical" name="LWAVE"> F  </i>
  <i type="logical" name="LCHARG"> F  </i>
  <v type="int" name="KPOINT_BSE">    -1     0     0     0</v>
  <i type="int" name="NELM">   200</i>
  <i type="string" name="GGA">PE</i>
 </incar>
 <structure name="primitive_cell" >
  <crystal>
   <varray name="basis" >
    <v>      29.26615549       0.00000000       0.00000000 </v>
    <v>     -14.63307775      25.34523413       0.00000000 </v>
    <v>       0.00000000       0.00000000      20.00000000 </v>
   </varray>
   <i name="volume">  14835.15125930 </i>
   <varray name="rec_basis" >
    <v>       0.03416916       0.01972757       0.00000000 </v>
    <v>       0.00000000       0.03945515       0.00000000 </v>
    <v>       0.00000000       0.00000000       0.05000000 </v>
   </varray>
  </crystal>
  <varray name="positions" >
   <v>       0.02944335      -0.48527832      -0.43627745 </v>
   <v>       0.05360434      -0.47319783      -0.49583982 </v>
   <v>      -0.02368585       0.48815708      -0.43681386 </v>
   <v>      -0.04965306       0.47517347      -0.37296588 </v>
   <v>       0.02408879      -0.48795561       0.44456929 </v>
   <v>       0.11231765      -0.44384117      -0.49669428 </v>
   <v>      -0.05349344       0.47325328      -0.49662348 </v>
   <v>      -0.02864074       0.48567963       0.44408121 </v>
   <v>       0.14017723      -0.38851932      -0.49701935 </v>
   <v>       0.14017723      -0.47130345      -0.49701935 </v>
   <v>       0.11862352      -0.36702383      -0.49657845 </v>
   <v>       0.11862352       0.48564734      -0.49657845 </v>
   <v>       0.04390421      -0.47804790       0.39600862 </v>
   <v>      -0.07130648       0.46434676      -0.32143727 </v>
   <v>      -0.11220807       0.44389596      -0.49640094 </v>
   <v>      -0.11856216      -0.48561290      -0.49627038 </v>
   <v>      -0.11856216       0.36705074      -0.49627038 </v>
   <v>       0.19508987      -0.36105813      -0.49721275 </v>
   <v>       0.19508987      -0.44385200      -0.49721275 </v>
   <v>      -0.14007433       0.47134908      -0.49661091 </v>
   <v>      -0.14007433       0.38857659      -0.49661091 </v>
   <v>       0.22310690      -0.38844655      -0.49720362 </v>
   <v>       0.21708609      -0.31808810      -0.49713294 </v>
   <v>       0.21708609      -0.46482581      -0.49713294 </v>
   <v>      -0.19498135       0.44388663      -0.49745850 </v>
   <v>      -0.19498135       0.36113202      -0.49745850 </v>
   <v>       0.28151009      -0.35924495      -0.49710978 </v>
   <v>      -0.22303274       0.38848363      -0.49800681 </v>
   <v>      -0.21693455       0.31816394      -0.49767690 </v>
   <v>      -0.21693455       0.46490151      -0.49767690 </v>
   <v>       0.30622979      -0.30622979      -0.49711640 </v>
   <v>       0.30622979      -0.38754042      -0.49711640 </v>
   <v>      -0.28149251       0.35925374      -0.49870889 </v>
   <v>       0.31808810      -0.21708609      -0.49713294 </v>
   <v>       0.31808810      -0.46482581      -0.49713294 </v>
   <v>       0.35924495      -0.28151009      -0.49710978 </v>
   <v>       0.35924495      -0.35924495      -0.49710978 </v>
   <v>      -0.30622760       0.30622760      -0.49883551 </v>
   <v>      -0.30622760       0.38754480      -0.49883551 </v>
   <v>       0.38754042      -0.30622979      -0.49711640 </v>
   <v>       0.36105813      -0.19508987      -0.49721275 </v>
   <v>       0.36105813      -0.44385200      -0.49721275 </v>
   <v>       0.38844655      -0.22310690      -0.49720362 </v>
   <v>       0.38844655      -0.38844655      -0.49720362 </v>
   <v>      -0.31816394       0.21693455      -0.49767690 </v>
   <v>      -0.31816394       0.46490151      -0.49767690 </v>
   <v>      -0.35925374       0.35925374      -0.49870889 </v>
   <v>      -0.35925374       0.28149251      -0.49870889 </v>
   <v>       0.38851932      -0.14017723      -0.49701935 </v>
   <v>       0.38851932      -0.47130345      -0.49701935 </v>
   <v>       0.36702383      -0.11862352      -0.49657845 </v>
   <v>       0.36702383       0.48564734      -0.49657845 </v>
   <v>      -0.36113202       0.44388663      -0.49745850 </v>
   <v>      -0.36113202       0.19498135      -0.49745850 </v>
   <v>      -0.38754480       0.30622760      -0.49883551 </v>
   <v>       0.44385200      -0.19508987      -0.49721275 </v>
   <v>       0.44385200      -0.36105813      -0.49721275 </v>
   <v>      -0.38848363       0.38848363      -0.49800681 </v>
   <v>      -0.38848363       0.22303274      -0.49800681 </v>
   <v>       0.46482581      -0.21708609      -0.49713294 </v>
   <v>       0.46482581      -0.31808810      -0.49713294 </v>
   <v>       0.44384117      -0.11231765      -0.49669428 </v>
   <v>       0.44384117      -0.44384117      -0.49669428 </v>
   <v>      -0.36705074      -0.48561290      -0.49627038 </v>
   <v>      -0.36705074       0.11856216      -0.49627038 </v>
   <v>      -0.38857659       0.47134908      -0.49661091 </v>
   <v>      -0.38857659       0.14007433      -0.49661091 </v>
   <v>       0.47130345      -0.14017723      -0.49701935 </v>
   <v>       0.47130345      -0.38851932      -0.49701935 </v>
   <v>      -0.44388663       0.36113202      -0.49745850 </v>
   <v>      -0.44388663       0.19498135      -0.49745850 </v>
   <v>      -0.46490151       0.21693455      -0.49767690 </v>
   <v>      -0.46490151       0.31816394      -0.49767690 </v>
   <v>       0.47319783      -0.05360434      -0.49583982 </v>
   <v>       0.47319783      -0.47319783      -0.49583982 </v>
   <v>      -0.48564734      -0.11862352      -0.49657845 </v>
   <v>      -0.48564734      -0.36702383      -0.49657845 </v>
   <v>      -0.44389596       0.11220807      -0.49640094 </v>
   <v>      -0.44389596       0.44389596      -0.49640094 </v>
   <v>      -0.47134908       0.38857659      -0.49661091 </v>
   <v>      -0.47134908       0.14007433      -0.49661091 </v>
   <v>       0.48527832      -0.02944335      -0.43627745 </v>
   <v>       0.48527832      -0.48527832      -0.43627745 </v>
   <v>       0.47804790      -0.47804790       0.39600862 </v>
   <v>       0.47804790      -0.04390421       0.39600862 </v>
   <v>       0.48795561      -0.02408879       0.44456929 </v>
   <v>       0.48795561      -0.48795561       0.44456929 </v>
   <v>      -0.46434676       0.46434676      -0.32143727 </v>
   <v>      -0.46434676       0.07130648      -0.32143727 </v>
   <v>      -0.47325328       0.47325328      -0.49662348 </v>
   <v>      -0.47325328       0.05349344      -0.49662348 </v>
   <v>      -0.47517347       0.47517347      -0.37296588 </v>
   <v>      -0.47517347       0.04965306      -0.37296588 </v>
   <v>       0.48561290       0.36705074      -0.49627038 </v>
   <v>       0.48561290       0.11856216      -0.49627038 </v>
   <v>      -0.48815708       0.02368585      -0.43681386 </v>
   <v>      -0.48815708       0.48815708      -0.43681386 </v>
   <v>      -0.48567963       0.48567963       0.44408121 </v>
   <v>      -0.48567963       0.02864074       0.44408121 </v>
  </varray>
 </structure>
 <varray name="primitive_index" >
  <v type="int" >        1 </v>
  <v type="int" >       68 </v>
  <v type="int" >       69 </v>
  <v type="int" >       70 </v>
  <v type="int" >       16 </v>
  <v type="int" >       35 </v>
  <v type="int" >       67 </v>
  <v type="int" >       15 </v>
  <v type="int" >       34 </v>
  <v type="int" >       36 </v>
  <v type="int" >       79 </v>
  <v type="int" >       81 </v>
  <v type="int" >       73 </v>
  <v type="int" >       12 </v>
  <v type="int" >       56 </v>
  <v type="int" >       93 </v>
  <v type="int" >       91 </v>
  <v type="int" >       33 </v>
  <v type="int" >       37 </v>
  <v type="int" >       57 </v>
  <v type="int" >       55 </v>
  <v type="int" >       32 </v>
  <v type="int" >       78 </v>
  <v type="int" >       80 </v>
  <v type="int" >       58 </v>
  <v type="int" >       54 </v>
  <v type="int" >       19 </v>
  <v type="int" >       53 </v>
  <v type="int" >       90 </v>
  <v type="int" >       92 </v>
  <v type="int" >        4 </v>
  <v type="int" >        3 </v>
  <v type="int" >       40 </v>
  <v type="int" >       77 </v>
  <v type="int" >       82 </v>
  <v type="int" >       17 </v>
  <v type="int" >       18 </v>
  <v type="int" >        7 </v>
  <v type="int" >        6 </v>
  <v type="int" >        2 </v>
  <v type="int" >       31 </v>
  <v type="int" >       25 </v>
  <v type="int" >       26 </v>
  <v type="int" >       20 </v>
  <v type="int" >       89 </v>
  <v type="int" >       94 </v>
  <v type="int" >       39 </v>
  <v type="int" >       38 </v>
  <v type="int" >       30 </v>
  <v type="int" >       24 </v>
  <v type="int" >       76 </v>
  <v type="int" >       83 </v>
  <v type="int" >       46 </v>
  <v type="int" >       52 </v>
  <v type="int" >        5 </v>
  <v type="int" >       27 </v>
  <v type="int" >       21 </v>
  <v type="int" >       41 </v>
  <v type="int" >       47 </v>
  <v type="int" >       75 </v>
  <v type="int" >       85 </v>
  <v type="int" >       29 </v>
  <v type="int" >       23 </v>
  <v type="int" >       95 </v>
  <v type="int" >       88 </v>
  <v type="int" >       45 </v>
  <v type="int" >       51 </v>
  <v type="int" >       28 </v>
  <v type="int" >       22 </v>
  <v type="int" >       42 </v>
  <v type="int" >       48 </v>
  <v type="int" >       87 </v>
  <v type="int" >       97 </v>
  <v type="int" >       64 </v>
  <v type="int" >       60 </v>
  <v type="int" >       74 </v>
  <v type="int" >       84 </v>
  <v type="int" >       50 </v>
  <v type="int" >       44 </v>
  <v type="int" >       43 </v>
  <v type="int" >       49 </v>
  <v type="int" >       10 </v>
  <v type="int" >        8 </v>
  <v type="int" >       98 </v>
  <v type="int" >       99 </v>
  <v type="int" >       72 </v>
  <v type="int" >       71 </v>
  <v type="int" >        9 </v>
  <v type="int" >       11 </v>
  <v type="int" >       59 </v>
  <v type="int" >       63 </v>
  <v type="int" >       62 </v>
  <v type="int" >       66 </v>
  <v type="int" >       96 </v>
  <v type="int" >       86 </v>
  <v type="int" >       65 </v>
  <v type="int" >       61 </v>
  <v type="int" >       13 </v>
  <v type="int" >       14 </v>
 </varray>
 <kpoints>
  <generation param="listgenerated">
   <i name="divisions" type="int">      20 </i>
   <v>       0.00000000       0.00000000       0.00000000 </v>
   <v>       0.50000000       0.00000000       0.00000000 </v>
   <v>       0.33333333       0.33333333       0.00000000 </v>
   <v>       0.00000000       0.00000000       0.00000000 </v>
  </generation>
  <varray name="kpointlist" >
   <v>       0.00000000       0.00000000       0.00000000 </v>
   <v>       0.02631579       0.00000000       0.00000000 </v>
   <v>       0.05263158       0.00000000       0.00000000 </v>
   <v>       0.07894737       0.00000000       0.00000000 </v>
   <v>       0.10526316       0.00000000       0.00000000 </v>
   <v>       0.13157895       0.00000000       0.00000000 </v>
   <v>       0.15789474       0.00000000       0.00000000 </v>
   <v>       0.18421053       0.00000000       0.00000000 </v>
   <v>       0.21052632       0.00000000       0.00000000 </v>
   <v>       0.23684211       0.00000000       0.00000000 </v>
   <v>       0.26315789       0.00000000       0.00000000 </v>
   <v>       0.28947368       0.00000000       0.00000000 </v>
   <v>       0.31578947       0.00000000       0.00000000 </v>
   <v>       0.34210526       0.00000000       0.00000000 </v>
   <v>       0.36842105       0.00000000       0.00000000 </v>
   <v>       0.39473684       0.00000000       0.00000000 </v>
   <v>       0.42105263       0.00000000       0.00000000 </v>
   <v>       0.44736842       0.00000000       0.00000000 </v>
   <v>       0.47368421       0.00000000       0.00000000 </v>
   <v>       0.50000000       0.00000000       0.00000000 </v>
   <v>       0.50000000       0.00000000       0.00000000 </v>
   <v>       0.49122807       0.01754386       0.00000000 </v>
   <v>       0.48245614       0.03508772       0.00000000 </v>
   <v>       0.47368421       0.05263158       0.00000000 </v>
   <v>       0.46491228       0.07017544       0.00000000 </v>
   <v>       0.45614035       0.08771930       0.00000000 </v>
   <v>       0.44736842       0.10526316       0.00000000 </v>
   <v>       0.43859649       0.12280702       0.00000000 </v>
   <v>       0.42982456       0.14035088       0.00000000 </v>
   <v>       0.42105263       0.15789474       0.00000000 </v>
   <v>       0.41228070       0.17543860       0.00000000 </v>
   <v>       0.40350877       0.19298246       0.00000000 </v>
   <v>       0.39473684       0.21052632       0.00000000 </v>
   <v>       0.38596491       0.22807018       0.00000000 </v>
   <v>       0.37719298       0.24561404       0.00000000 </v>
   <v>       0.36842105       0.26315789       0.00000000 </v>
   <v>       0.35964912       0.28070175       0.00000000 </v>
   <v>       0.35087719       0.29824561       0.00000000 </v>
   <v>       0.34210526       0.31578947       0.00000000 </v>
   <v>       0.33333333       0.33333333       0.00000000 </v>
   <v>       0.33333333       0.33333333       0.00000000 </v>
   <v>       0.31578947       0.31578947       0.00000000 </v>
   <v>       0.29824561       0.29824561       0.00000000 </v>
   <v>       0.28070175       0.28070175       0.00000000 </v>
   <v>       0.26315789       0.26315789       0.00000000 </v>
   <v>       0.24561404       0.24561404       0.00000000 </v>
   <v>       0.22807018       0.22807018       0.00000000 </v>
   <v>       0.21052632       0.21052632       0.00000000 </v>
   <v>       0.19298246       0.19298246       0.00000000 </v>
   <v>       0.17543860       0.17543860       0.00000000 </v>
   <v>       0.15789474       0.15789474       0.00000000 </v>
   <v>       0.14035088       0.14035088       0.00000000 </v>
   <v>       0.12280702       0.12280702       0.00000000 </v>
   <v>       0.10526316       0.10526316       0.00000000 </v>
   <v>       0.08771930       0.08771930       0.00000000 </v>
   <v>       0.07017544       0.07017544       0.00000000 </v>
   <v>       0.05263158       0.05263158       0.00000000 </v>
   <v>       0.03508772       0.03508772       0.00000000 </v>
   <v>       0.01754386       0.01754386       0.00000000 </v>
   <v>       0.00000000       0.00000000       0.00000000 </v>
  </varray>
  <varray name="weights" >
   <v>       0.01666667 </v>
   <v>       0.01666667 </v>
   <v>       0.01666667 </v>
   <v>       0.01666667 </v>
   <v>       0.01666667 </v>
   <v>       0.01666667 </v>
   <v>       0.01666667 </v>
   <v>       0.01666667 </v>
   <v>       0.01666667 </v>
   <v>       0.01666667 </v>
   <v>       0.01666667 </v>
   <v>       0.01666667 </v>
   <v>       0.01666667 </v>
   <v>       0.01666667 </v>
   <v>       0.01666667 </v>
   <v>       0.01666667 </v>
   <v>       0.01666667 </v>
   <v>       0.01666667 </v>
   <v>       0.01666667 </v>
   <v>       0.01666667 </v>
   <v>       0.01666667 </v>
   <v>       0.01666667 </v>
   <v>       0.01666667 </v>
   <v>       0.01666667 </v>
   <v>       0.01666667 </v>
   <v>       0.01666667 </v>
   <v>       0.01666667 </v>
   <v>       0.01666667 </v>
   <v>       0.01666667 </v>
   <v>       0.01666667 </v>
   <v>       0.01666667 </v>
   <v>       0.01666667 </v>
   <v>       0.01666667 </v>
   <v>       0.01666667 </v>
   <v>       0.01666667 </v>
   <v>       0.01666667 </v>
   <v>       0.01666667 </v>
   <v>       0.01666667 </v>
   <v>       0.01666667 </v>
   <v>       0.01666667 </v>
   <v>       0.01666667 </v>
   <v>       0.01666667 </v>
   <v>       0.01666667 </v>
   <v>       0.01666667 </v>
   <v>       0.01666667 </v>
   <v>       0.01666667 </v>
   <v>       0.01666667 </v>
   <v>       0.01666667 </v>
   <v>       0.01666667 </v>
   <v>       0.01666667 </v>
   <v>       0.01666667 </v>
   <v>       0.01666667 </v>
   <v>       0.01666667 </v>
   <v>       0.01666667 </v>
   <v>       0.01666667 </v>
   <v>       0.01666667 </v>
   <v>       0.01666667 </v>
   <v>       0.01666667 </v>
   <v>       0.01666667 </v>
   <v>       0.01666667 </v>
  </varray>
 </kpoints>
 <parameters>
  <separator name="general" >
   <i type="string" name="SYSTEM">Simulation for cell shape cell volume r</i>
   <i type="logical" name="LCOMPAT"> F  </i>
  </separator>
  <separator name="electronic" >
   <i type="string" name="PREC">high</i>
   <i name="ENMAX">    500.00000000</i>
   <i name="ENAUG">    644.87300000</i>
   <i name="EDIFF">      0.00001000</i>
   <i type="int" name="IALGO">    38</i>
   <i type="int" name="IWAVPR">    10</i>
   <i type="int" name="NBANDS">   224</i>
   <i name="NELECT">    330.00000000</i>
   <i type="int" name="TURBO">     0</i>
   <i type="int" name="IRESTART">     0</i>
   <i type="int" name="NREBOOT">     0</i>
   <i type="int" name="NMIN">     0</i>
   <i name="EREF">      0.00000000</i>
   <separator name="electronic smearing" >
    <i type="int" name="ISMEAR">     0</i>
    <i name="SIGMA">      0.01000000</i>
    <i name="KSPACING">      0.50000000</i>
    <i type="logical" name="KGAMMA"> T  </i>
   </separator>
   <separator name="electronic projectors" >
    <i type="logical" name="LREAL"> T  </i>
    <v name="ROPT">     -0.00040000     -0.00040000     -0.00040000</v>
    <i type="int" name="LMAXPAW">  -100</i>
    <i type="int" name="LMAXMIX">     2</i>
    <i type="logical" name="NLSPLINE"> F  </i>
   </separator>
   <separator name="electronic startup" >
    <i type="int" name="ISTART">     1</i>
    <i type="int" name="ICHARG">    11</i>
    <i type="int" name="INIWAV">     1</i>
   </separator>
   <separator name="electronic spin" >
    <i type="int" name="ISPIN">     1</i>
    <i type="logical" name="LNONCOLLINEAR"> F  </i>
    <v name="MAGMOM">      1.00000000      1.00000000      1.00000000      1.00000000      1.00000000      1.00000000      1.00000000      1.00000000      1.00000000      1.00000000      1.00000000      1.00000000      1.00000000      1.00000000      1.00000000      1.00000000      1.00000000      1.00000000      1.00000000      1.00000000
      1.00000000      1.00000000      1.00000000      1.00000000      1.00000000      1.00000000      1.00000000      1.00000000      1.00000000      1.00000000      1.00000000      1.00000000      1.00000000      1.00000000      1.00000000      1.00000000      1.00000000      1.00000000      1.00000000      1.00000000
      1.00000000      1.00000000      1.00000000      1.00000000      1.00000000      1.00000000      1.00000000      1.00000000      1.00000000      1.00000000      1.00000000      1.00000000      1.00000000      1.00000000      1.00000000      1.00000000      1.00000000      1.00000000      1.00000000      1.00000000
      1.00000000      1.00000000      1.00000000      1.00000000      1.00000000      1.00000000      1.00000000      1.00000000      1.00000000      1.00000000      1.00000000      1.00000000      1.00000000      1.00000000      1.00000000      1.00000000      1.00000000      1.00000000      1.00000000      1.00000000
      1.00000000      1.00000000      1.00000000      1.00000000      1.00000000      1.00000000      1.00000000      1.00000000      1.00000000      1.00000000      1.00000000      1.00000000      1.00000000      1.00000000      1.00000000      1.00000000      1.00000000      1.00000000      1.00000000</v>
    <i name="NUPDOWN">     -1.00000000</i>
    <i type="logical" name="LSORBIT"> F  </i>
    <v name="SAXIS">      0.00000000      0.00000000      1.00000000</v>
    <i type="logical" name="LSPIRAL"> F  </i>
    <v name="QSPIRAL">      0.00000000      0.00000000      0.00000000</v>
    <i type="logical" name="LZEROZ"> F  </i>
   </separator>
   <separator name="electronic exchange-correlation" >
    <i type="logical" name="LASPH"> F  </i>
    <i type="logical" name="LMETAGGA"> F  </i>
   </separator>
   <separator name="electronic convergence" >
    <i type="int" name="NELM">   200</i>
    <i type="int" name="NELMDL">     0</i>
    <i type="int" name="NELMIN">     2</i>
    <i name="ENINI">    500.00000000</i>
    <separator name="electronic convergence detail" >
     <i type="logical" name="LDIAG"> T  </i>
     <i type="logical" name="LSUBROT"> F  </i>
     <i name="WEIMIN">      0.00000000</i>
     <i name="EBREAK">      0.00000001</i>
     <i name="DEPER">      0.30000000</i>
     <i type="int" name="NRMM">     4</i>
     <i name="TIME">      0.40000000</i>
    </separator>
   </separator>
   <separator name="electronic mixer" >
    <i name="AMIX">      0.40000000</i>
    <i name="BMIX">      1.00000000</i>
    <i name="AMIN">      0.10000000</i>
    <i name="AMIX_MAG">      1.60000000</i>
    <i name="BMIX_MAG">      1.00000000</i>
    <separator name="electronic mixer details" >
     <i type="int" name="IMIX">     4</i>
     <i type="logical" name="MIXFIRST"> F  </i>
     <i type="int" name="MAXMIX">   -45</i>
     <i name="WC">    100.00000000</i>
     <i type="int" name="INIMIX">     1</i>
     <i type="int" name="MIXPRE">     1</i>
     <i type="int" name="MREMOVE">     5</i>
    </separator>
   </separator>
   <separator name="electronic dipolcorrection" >
    <i type="logical" name="LDIPOL"> F  </i>
    <i type="logical" name="LMONO"> F  </i>
    <i type="int" name="IDIPOL">     0</i>
    <i name="EPSILON">      1.00000000</i>
    <v name="DIPOL">   -100.00000000   -100.00000000   -100.00000000</v>
    <i name="EFIELD">      0.00000000</i>
   </separator>
  </separator>
  <separator name="grids" >
   <i type="int" name="NGX">   216</i>
   <i type="int" name="NGY">   216</i>
   <i type="int" name="NGZ">   150</i>
   <i type="int" name="NGXF">   324</i>
   <i type="int" name="NGYF">   324</i>
   <i type="int" name="NGZF">   224</i>
   <i type="logical" name="ADDGRID"> F  </i>
  </separator>
  <separator name="ionic" >
   <i type="int" name="NSW">     0</i>
   <i type="int" name="IBRION">    -1</i>
   <i type="int" name="MDALGO">     0</i>
   <i type="int" name="ISIF">     2</i>
   <i name="PSTRESS">      0.00000000</i>
   <i name="EDIFFG">     -0.01000000</i>
   <i type="int" name="NFREE">     0</i>
   <i name="POTIM">      0.30000000</i>
   <i name="SMASS">     -3.00000000</i>
   <i name="SCALEE">      1.00000000</i>
  </separator>
  <separator name="ionic md" >
   <i name="TEBEG">      0.00010000</i>
   <i name="TEEND">      0.00010000</i>
   <i type="int" name="NBLOCK">     1</i>
   <i type="int" name="KBLOCK">     1</i>
   <i type="int" name="NPACO">   256</i>
   <i name="APACO">     16.00000000</i>
  </separator>
  <separator name="symmetry" >
   <i type="int" name="ISYM">     2</i>
   <i name="SYMPREC">      0.00001000</i>
  </separator>
  <separator name="dos" >
   <i type="int" name="LORBIT">     0</i>
   <v name="RWIGS">     -1.00000000     -1.00000000     -1.00000000</v>
   <i type="int" name="NEDOS">   301</i>
   <i name="EMIN">     10.00000000</i>
   <i name="EMAX">    -10.00000000</i>
   <i name="EFERMI">      0.00000000</i>
  </separator>
  <separator name="writing" >
   <i type="int" name="NWRITE">     0</i>
   <i type="logical" name="LWAVE"> F  </i>
   <i type="logical" name="LDOWNSAMPLE"> F  </i>
   <i type="logical" name="LCHARG"> F  </i>
   <i type="logical" name="LPARD"> F  </i>
   <i type="logical" name="LVTOT"> F  </i>
   <i type="logical" name="LVHAR"> F  </i>
   <i type="logical" name="LELF"> F  </i>
   <i type="logical" name="LOPTICS"> F  </i>
   <v name="STM">      0.00000000      0.00000000      0.00000000      0.00000000      0.00000000      0.00000000      0.00000000</v>
  </separator>
  <separator name="performance" >
   <i type="int" name="NPAR">    16</i>
   <i type="int" name="NSIM">     4</i>
   <i type="int" name="NBLK">    -1</i>
   <i type="logical" name="LPLANE"> T  </i>
   <i type="logical" name="LSCALAPACK"> T  </i>
   <i type="logical" name="LSCAAWARE"> F  </i>
   <i type="logical" name="LSCALU"> F  </i>
   <i type="logical" name="LASYNC"> F  </i>
   <i type="logical" name="LORBITALREAL"> F  </i>
  </separator>
  <separator name="miscellaneous" >
   <i type="int" name="IDIOT">     3</i>
   <i type="int" name="ISPECIAL">     0</i>
   <i type="logical" name="LMUSIC"> F  </i>
   <v name="POMASS">     14.00100000     12.01100000      1.00000000</v>
   <v name="DARWINR">      0.00000000      0.00000000      0.00000000</v>
   <v name="DARWINV">      1.00000000      1.00000000      1.00000000</v>
   <i type="logical" name="LCORR"> T  </i>
  </separator>
  <i type="logical" name="GGA_COMPAT"> T  </i>
  <i type="logical" name="LBERRY"> F  </i>
  <i type="int" name="ICORELEVEL">     0</i>
  <i type="logical" name="LDAU"> F  </i>
  <i type="int" name="I_CONSTRAINED_M">     0</i>
  <separator name="electronic exchange-correlation" >
   <i type="string" name="GGA">PE</i>
   <i type="int" name="VOSKOWN">     0</i>
   <i type="logical" name="LHFCALC"> F  </i>
   <i type="string" name="PRECFOCK"></i>
   <i type="logical" name="LSYMGRAD"> F  </i>
   <i type="logical" name="LHFONE"> F  </i>
   <i type="logical" name="LRHFCALC"> F  </i>
   <i type="logical" name="LTHOMAS"> F  </i>
   <i type="logical" name="LMODELHF"> F  </i>
   <i name="ENCUT4O">     -1.00000000</i>
   <i type="int" name="EXXOEP">     0</i>
   <i type="int" name="FOURORBIT">     0</i>
   <i name="AEXX">      0.00000000</i>
   <i name="HFALPHA">      0.00000000</i>
   <i name="MCALPHA">      0.00000000</i>
   <i name="ALDAX">      1.00000000</i>
   <i name="AGGAX">      1.00000000</i>
   <i name="ALDAC">      1.00000000</i>
   <i name="AGGAC">      1.00000000</i>
   <i type="int" name="NKREDX">     1</i>
   <i type="int" name="NKREDY">     1</i>
   <i type="int" name="NKREDZ">     1</i>
   <i type="logical" name="SHIFTRED"> F  </i>
   <i type="logical" name="ODDONLY"> F  </i>
   <i type="logical" name="EVENONLY"> F  </i>
   <i type="int" name="LMAXFOCK">     0</i>
   <i type="int" name="NMAXFOCKAE">     0</i>
   <i type="logical" name="LFOCKAEDFT"> F  </i>
   <i name="HFSCREEN">      0.00000000</i>
   <i name="HFSCREENC">      0.00000000</i>
   <i type="int" name="NBANDSGWLOW">     0</i>
  </separator>
  <separator name="vdW DFT" >
   <i type="logical" name="LUSE_VDW"> F  </i>
   <i name="Zab_VDW">     -0.84910000</i>
   <i name="PARAM1">      0.12340000</i>
   <i name="PARAM2">      1.00000000</i>
   <i name="PARAM3">      0.00000000</i>
  </separator>
  <separator name="model GW" >
   <i type="int" name="MODEL_GW">     0</i>
   <i name="MODEL_EPS0">     89.91000763</i>
   <i name="MODEL_ALPHA">      1.00000000</i>
  </separator>
  <separator name="linear response parameters" >
   <i type="logical" name="LEPSILON"> F  </i>
   <i type="logical" name="LRPA"> F  </i>
   <i type="logical" name="LNABLA"> F  </i>
   <i type="logical" name="LVEL"> F  </i>
   <i type="int" name="KINTER">     0</i>
   <i name="CSHIFT">      0.10000000</i>
   <i name="OMEGAMAX">     -1.00000000</i>
   <i name="DEG_THRESHOLD">      0.00200000</i>
   <i name="RTIME">     -0.10000000</i>
   <i name="WPLASMAI">      0.00000000</i>
   <v name="DFIELD">      0.00000000      0.00000000      0.00000000</v>
   <v name="WPLASMA">      0.00000000      0.00000000      0.00000000      0.00000000      0.00000000      0.00000000      0.00000000      0.00000000      0.00000000</v>
  </separator>
  <separator name="orbital magnetization" >
   <i type="logical" name="NUCIND"> F  </i>
   <v name="MAGPOS">      0.00000000      0.00000000      0.00000000</v>
   <i type="logical" name="LNICSALL"> T  </i>
   <i type="logical" name="ORBITALMAG"> F  </i>
   <i type="logical" name="LMAGBLOCH"> F  </i>
   <i type="logical" name="LCHIMAG"> F  </i>
   <i type="logical" name="LGAUGE"> T  </i>
   <i type="int" name="MAGATOM">     0</i>
   <v name="MAGDIPOL">      0.00000000      0.00000000      0.00000000</v>
   <v name="AVECCONST">      0.00000000      0.00000000      0.00000000</v>
  </separator>
  <separator name="response functions" >
   <i type="logical" name="LADDER"> F  </i>
   <i type="logical" name="LRPAFORCE"> F  </i>
   <i type="logical" name="LFXC"> F  </i>
   <i type="logical" name="LHARTREE"> T  </i>
   <i type="int" name="IBSE">     0</i>
   <v type="int" name="KPOINT">    -1     0     0     0</v>
   <i type="logical" name="LTCTE"> F  </i>
   <i type="logical" name="LTETE"> F  </i>
   <i type="logical" name="LTRIPLET"> F  </i>
   <i type="logical" name="LFXCEPS"> F  </i>
   <i type="logical" name="LFXHEG"> F  </i>
   <i type="int" name="NATURALO">     2</i>
   <i type="logical" name="L2ORDER"> F  </i>
   <i type="logical" name="LMP2LT"> F  </i>
   <i type="logical" name="LUSEW"> F  </i>
   <i name="ENCUTGW">     -2.00000000</i>
   <i name="ENCUTGWSOFT">     -2.00000000</i>
   <i name="ENCUTLF">     -1.00000000</i>
   <i type="int" name="LMAXMP2">    -1</i>
   <i name="SCISSOR">      0.00000000</i>
   <i type="int" name="NOMEGA">     0</i>
   <i type="int" name="NOMEGAR">     0</i>
   <i type="int" name="NBANDSGW">    -1</i>
   <i type="int" name="NBANDSO">    -1</i>
   <i type="int" name="NBANDSV">    -1</i>
   <i type="int" name="NELM">   200</i>
   <i type="int" name="NELMHF">     1</i>
   <i type="int" name="DIM">     3</i>
   <i type="int" name="ANTIRES">     0</i>
   <i name="OMEGAMAX">    -30.00000000</i>
   <i name="OMEGAMIN">    -30.00000000</i>
   <i name="OMEGATL">   -200.00000000</i>
   <i type="int" name="OMEGAGRID">   140</i>
   <i name="CSHIFT">     -0.10000000</i>
   <i type="logical" name="SELFENERGY"> F  </i>
   <i type="logical" name="LSPECTRAL"> F  </i>
   <i type="logical" name="LSPECTRALGW"> F  </i>
   <i type="logical" name="LSINGLES"> F  </i>
   <i type="logical" name="LFERMIGW"> F  </i>
   <i type="logical" name="ODDONLYGW"> F  </i>
   <i type="logical" name="EVENONLYGW"> F  </i>
   <i type="int" name="NKREDLFX">     1</i>
   <i type="int" name="NKREDLFY">     1</i>
   <i type="int" name="NKREDLFZ">     1</i>
   <i type="int" name="MAXMEM">  2800</i>
   <i type="int" name="TELESCOPE">     0</i>
   <i type="int" name="TAUPAR">     1</i>
   <i type="int" name="OMEGAPAR">    -1</i>
   <i name="LAMBDA">      1.00000000</i>
  </separator>
  <separator name="External order field" >
   <i name="OFIELD_KAPPA">      0.00000000</i>
   <v name="OFIELD_K">      0.00000000      0.00000000      0.00000000</v>
   <i name="OFIELD_Q6_NEAR">      0.00000000</i>
   <i name="OFIELD_Q6_FAR">      0.00000000</i>
   <i name="OFIELD_A">      0.00000000</i>
  </separator>
  <separator name="solvation model" >
   <i type="logical" name="LSOL"> F  </i>
  </separator>
 </parameters>
 <atominfo>
  <atoms>      99 </atoms>
  <types>       3 </types>
  <array name="atoms" >
   <dimension dim="1">ion</dimension>
   <field type="string">element</field>
   <field type="int">atomtype</field>
   <set>
    <rc><c>N </c><c>   1</c></rc>
    <rc><c>N </c><c>   1</c></rc>
    <rc><c>N </c><c>   1</c></rc>
    <rc><c>N </c><c>   1</c></rc>
    <rc><c>N </c><c>   1</c></rc>
    <rc><c>N </c><c>   1</c></rc>
    <rc><c>N </c><c>   1</c></rc>
    <rc><c>N </c><c>   1</c></rc>
    <rc><c>N </c><c>   1</c></rc>
    <rc><c>N </c><c>   1</c></rc>
    <rc><c>N </c><c>   1</c></rc>
    <rc><c>N </c><c>   1</c></rc>
    <rc><c>N </c><c>   1</c></rc>
    <rc><c>N </c><c>   1</c></rc>
    <rc><c>N </c><c>   1</c></rc>
    <rc><c>C </c><c>   2</c></rc>
    <rc><c>C </c><c>   2</c></rc>
    <rc><c>C </c><c>   2</c></rc>
    <rc><c>C </c><c>   2</c></rc>
    <rc><c>C </c><c>   2</c></rc>
    <rc><c>C </c><c>   2</c></rc>
    <rc><c>C </c><c>   2</c></rc>
    <rc><c>C </c><c>   2</c></rc>
    <rc><c>C </c><c>   2</c></rc>
    <rc><c>C </c><c>   2</c></rc>
    <rc><c>C </c><c>   2</c></rc>
    <rc><c>C </c><c>   2</c></rc>
    <rc><c>C </c><c>   2</c></rc>
    <rc><c>C </c><c>   2</c></rc>
    <rc><c>C </c><c>   2</c></rc>
    <rc><c>C </c><c>   2</c></rc>
    <rc><c>C </c><c>   2</c></rc>
    <rc><c>C </c><c>   2</c></rc>
    <rc><c>C </c><c>   2</c></rc>
    <rc><c>C </c><c>   2</c></rc>
    <rc><c>C </c><c>   2</c></rc>
    <rc><c>C </c><c>   2</c></rc>
    <rc><c>C </c><c>   2</c></rc>
    <rc><c>C </c><c>   2</c></rc>
    <rc><c>C </c><c>   2</c></rc>
    <rc><c>C </c><c>   2</c></rc>
    <rc><c>C </c><c>   2</c></rc>
    <rc><c>C </c><c>   2</c></rc>
    <rc><c>C </c><c>   2</c></rc>
    <rc><c>C </c><c>   2</c></rc>
    <rc><c>C </c><c>   2</c></rc>
    <rc><c>C </c><c>   2</c></rc>
    <rc><c>C </c><c>   2</c></rc>
    <rc><c>C </c><c>   2</c></rc>
    <rc><c>C </c><c>   2</c></rc>
    <rc><c>C </c><c>   2</c></rc>
    <rc><c>C </c><c>   2</c></rc>
    <rc><c>C </c><c>   2</c></rc>
    <rc><c>C </c><c>   2</c></rc>
    <rc><c>C </c><c>   2</c></rc>
    <rc><c>C </c><c>   2</c></rc>
    <rc><c>C </c><c>   2</c></rc>
    <rc><c>C </c><c>   2</c></rc>
    <rc><c>C </c><c>   2</c></rc>
    <rc><c>C </c><c>   2</c></rc>
    <rc><c>C </c><c>   2</c></rc>
    <rc><c>C </c><c>   2</c></rc>
    <rc><c>C </c><c>   2</c></rc>
    <rc><c>C </c><c>   2</c></rc>
    <rc><c>C </c><c>   2</c></rc>
    <rc><c>C </c><c>   2</c></rc>
    <rc><c>C </c><c>   2</c></rc>
    <rc><c>C </c><c>   2</c></rc>
    <rc><c>C </c><c>   2</c></rc>
    <rc><c>C </c><c>   2</c></rc>
    <rc><c>C </c><c>   2</c></rc>
    <rc><c>C </c><c>   2</c></rc>
    <rc><c>H </c><c>   3</c></rc>
    <rc><c>H </c><c>   3</c></rc>
    <rc><c>H </c><c>   3</c></rc>
    <rc><c>H </c><c>   3</c></rc>
    <rc><c>H </c><c>   3</c></rc>
    <rc><c>H </c><c>   3</c></rc>
    <rc><c>H </c><c>   3</c></rc>
    <rc><c>H </c><c>   3</c></rc>
    <rc><c>H </c><c>   3</c></rc>
    <rc><c>H </c><c>   3</c></rc>
    <rc><c>H </c><c>   3</c></rc>
    <rc><c>H </c><c>   3</c></rc>
    <rc><c>H </c><c>   3</c></rc>
    <rc><c>H </c><c>   3</c></rc>
    <rc><c>H </c><c>   3</c></rc>
    <rc><c>H </c><c>   3</c></rc>
    <rc><c>H </c><c>   3</c></rc>
    <rc><c>H </c><c>   3</c></rc>
    <rc><c>H </c><c>   3</c></rc>
    <rc><c>H </c><c>   3</c></rc>
    <rc><c>H </c><c>   3</c></rc>
    <rc><c>H </c><c>   3</c></rc>
    <rc><c>H </c><c>   3</c></rc>
    <rc><c>H </c><c>   3</c></rc>
    <rc><c>H </c><c>   3</c></rc>
    <rc><c>H </c><c>   3</c></rc>
    <rc><c>H </c><c>   3</c></rc>
   </set>
  </array>
  <array name="atomtypes" >
   <dimension dim="1">type</dimension>
   <field type="int">atomspertype</field>
   <field type="string">element</field>
   <field>mass</field>
   <field>valence</field>
   <field type="string">pseudopotential</field>
   <set>
    <rc><c>  15</c><c>N </c><c>     14.00100000</c><c>      5.00000000</c><c>  PAW_PBE N 08Apr2002                   </c></rc>
    <rc><c>  57</c><c>C </c><c>     12.01100000</c><c>      4.00000000</c><c>  PAW_PBE C 08Apr2002                   </c></rc>
    <rc><c>  27</c><c>H </c><c>      1.00000000</c><c>      1.00000000</c><c>  PAW_PBE H 15Jun2001                   </c></rc>
   </set>
  </array>
 </atominfo>
 <structure name="initialpos" >
  <crystal>
   <varray name="basis" >
    <v>      29.26615549       0.00000000       0.00000000 </v>
    <v>     -14.63307775      25.34523413       0.00000000 </v>
    <v>       0.00000000       0.00000000      20.00000000 </v>
   </varray>
   <i name="volume">  14835.15125930 </i>
   <varray name="rec_basis" >
    <v>       0.03416916       0.01972757       0.00000000 </v>
    <v>       0.00000000       0.03945515       0.00000000 </v>
    <v>       0.00000000       0.00000000       0.05000000 </v>
   </varray>
  </crystal>
  <varray name="positions" >
   <v>       0.02944335       0.51472168       0.56372255 </v>
   <v>       0.38754042       0.69377021       0.50288360 </v>
   <v>       0.30622979       0.61245958       0.50288360 </v>
   <v>       0.30622979       0.69377021       0.50288360 </v>
   <v>       0.61245520       0.30622760       0.50116449 </v>
   <v>       0.69377240       0.38754480       0.50116449 </v>
   <v>       0.69377240       0.30622760       0.50116449 </v>
   <v>       0.48527832       0.51472168       0.56372255 </v>
   <v>       0.53565324       0.46434676       0.67856273 </v>
   <v>       0.48527832       0.97055665       0.56372255 </v>
   <v>       0.53565324       0.07130648       0.67856273 </v>
   <v>       0.92869352       0.46434676       0.67856273 </v>
   <v>       0.51432037       0.48567963       0.44408121 </v>
   <v>       0.51432037       0.02864074       0.44408121 </v>
   <v>       0.97135926       0.48567963       0.44408121 </v>
   <v>       0.02408879       0.51204439       0.44456929 </v>
   <v>       0.35924495       0.71848991       0.50289022 </v>
   <v>       0.35924495       0.64075505       0.50289022 </v>
   <v>       0.28151009       0.64075505       0.50289022 </v>
   <v>       0.38844655       0.61155345       0.50279638 </v>
   <v>       0.44385200       0.63894187       0.50278725 </v>
   <v>       0.47130345       0.61148068       0.50298065 </v>
   <v>       0.44384117       0.55615883       0.50330572 </v>
   <v>       0.38851932       0.52869655       0.50298065 </v>
   <v>       0.36105813       0.55614800       0.50278725 </v>
   <v>       0.38844655       0.77689310       0.50279638 </v>
   <v>       0.44385200       0.80491013       0.50278725 </v>
   <v>       0.47130345       0.85982277       0.50298065 </v>
   <v>       0.44384117       0.88768235       0.50330572 </v>
   <v>       0.38851932       0.85982277       0.50298065 </v>
   <v>       0.36105813       0.80491013       0.50278725 </v>
   <v>       0.22310690       0.61155345       0.50279638 </v>
   <v>       0.19508987       0.63894187       0.50278725 </v>
   <v>       0.14017723       0.61148068       0.50298065 </v>
   <v>       0.11231765       0.55615883       0.50330572 </v>
   <v>       0.14017723       0.52869655       0.50298065 </v>
   <v>       0.19508987       0.55614800       0.50278725 </v>
   <v>       0.64074626       0.28149251       0.50129111 </v>
   <v>       0.64074626       0.35925374       0.50129111 </v>
   <v>       0.71850749       0.35925374       0.50129111 </v>
   <v>       0.61151637       0.38848363       0.50199319 </v>
   <v>       0.55611337       0.36113202       0.50254150 </v>
   <v>       0.52865092       0.38857659       0.50338909 </v>
   <v>       0.55610404       0.44389596       0.50359906 </v>
   <v>       0.61142341       0.47134908       0.50338909 </v>
   <v>       0.63886798       0.44388663       0.50254150 </v>
   <v>       0.61151637       0.22303274       0.50199319 </v>
   <v>       0.55611337       0.19498135       0.50254150 </v>
   <v>       0.52865092       0.14007433       0.50338909 </v>
   <v>       0.55610404       0.11220807       0.50359906 </v>
   <v>       0.61142341       0.14007433       0.50338909 </v>
   <v>       0.63886798       0.19498135       0.50254150 </v>
   <v>       0.77696726       0.38848363       0.50199319 </v>
   <v>       0.80501865       0.36113202       0.50254150 </v>
   <v>       0.85992567       0.38857659       0.50338909 </v>
   <v>       0.88779193       0.44389596       0.50359906 </v>
   <v>       0.85992567       0.47134908       0.50338909 </v>
   <v>       0.80501865       0.44388663       0.50254150 </v>
   <v>       0.52674672       0.47325328       0.50337652 </v>
   <v>       0.47319783       0.52680217       0.50416018 </v>
   <v>       0.51184292       0.48815708       0.56318614 </v>
   <v>       0.52482653       0.47517347       0.62703412 </v>
   <v>       0.52674672       0.05349344       0.50337652 </v>
   <v>       0.47319783       0.94639566       0.50416018 </v>
   <v>       0.51184292       0.02368585       0.56318614 </v>
   <v>       0.52482653       0.04965306       0.62703412 </v>
   <v>       0.94650656       0.47325328       0.50337652 </v>
   <v>       0.05360434       0.52680217       0.50416018 </v>
   <v>       0.97631415       0.48815708       0.56318614 </v>
   <v>       0.95034694       0.47517347       0.62703412 </v>
   <v>       0.48795561       0.51204439       0.44456929 </v>
   <v>       0.48795561       0.97591121       0.44456929 </v>
   <v>       0.04390421       0.52195210       0.39600862 </v>
   <v>       0.51435266       0.88137648       0.50342155 </v>
   <v>       0.46482581       0.78291391       0.50286706 </v>
   <v>       0.36702383       0.88137648       0.50342155 </v>
   <v>       0.31808810       0.78291391       0.50286706 </v>
   <v>       0.21708609       0.68191190       0.50286706 </v>
   <v>       0.11862352       0.63297617       0.50342155 </v>
   <v>       0.21708609       0.53517419       0.50286706 </v>
   <v>       0.11862352       0.48564734       0.50342155 </v>
   <v>       0.31808810       0.53517419       0.50286706 </v>
   <v>       0.36702383       0.48564734       0.50342155 </v>
   <v>       0.51435266       0.63297617       0.50342155 </v>
   <v>       0.46482581       0.68191190       0.50286706 </v>
   <v>       0.48561290       0.11856216       0.50372962 </v>
   <v>       0.53509849       0.21693455       0.50232310 </v>
   <v>       0.63294926       0.11856216       0.50372962 </v>
   <v>       0.68183606       0.21693455       0.50232310 </v>
   <v>       0.78306545       0.31816394       0.50232310 </v>
   <v>       0.88143784       0.36705074       0.50372962 </v>
   <v>       0.78306545       0.46490151       0.50232310 </v>
   <v>       0.88143784       0.51438710       0.50372962 </v>
   <v>       0.68183606       0.46490151       0.50232310 </v>
   <v>       0.63294926       0.51438710       0.50372962 </v>
   <v>       0.48561290       0.36705074       0.50372962 </v>
   <v>       0.53509849       0.31816394       0.50232310 </v>
   <v>       0.47804790       0.52195210       0.39600862 </v>
   <v>       0.47804790       0.95609579       0.39600862 </v>
  </varray>
 </structure>
 <calculation>
  <scstep>
   <time name="dav">  543.18  549.41</time>
   <time name="total">  543.44  549.67</time>
   <energy>
    <i name="alphaZ">     34.69258221 </i>
    <i name="ewald">  39502.14537198 </i>
    <i name="hartreedc"> -49775.56778627 </i>
    <i name="XCdc">   1155.30871417 </i>
    <i name="pawpsdc">  31506.26942158 </i>
    <i name="pawaedc"> -31566.50386187 </i>
    <i name="eentropy">     -0.00000000 </i>
    <i name="bandstr">  -4279.44074906 </i>
    <i name="atom">  12692.61638395 </i>
    <i name="e_fr_energy">   -730.47992331 </i>
    <i name="e_wo_entrp">   -730.47992331 </i>
    <i name="e_0_energy">   -730.47992331 </i>
   </energy>
  </scstep>
  <scstep>
   <time name="dav">  604.91  611.84</time>
   <time name="total">  604.91  611.84</time>
   <energy>
    <i name="e_fr_energy">   -730.88367080 </i>
    <i name="e_wo_entrp">   -730.88367080 </i>
    <i name="e_0_energy">   -730.88367080 </i>
   </energy>
  </scstep>
  <scstep>
   <time name="dav">  685.86  693.78</time>
   <time name="total">  685.86  693.78</time>
   <energy>
    <i name="e_fr_energy">   -730.89601437 </i>
    <i name="e_wo_entrp">   -730.89601437 </i>
    <i name="e_0_energy">   -730.89601437 </i>
   </energy>
  </scstep>
  <scstep>
   <time name="dav">  601.51  608.42</time>
   <time name="total">  601.51  608.42</time>
   <energy>
    <i name="e_fr_energy">   -730.89627472 </i>
    <i name="e_wo_entrp">   -730.89627472 </i>
    <i name="e_0_energy">   -730.89627472 </i>
   </energy>
  </scstep>
  <scstep>
   <time name="dav">  600.62  607.67</time>
   <time name="total">  600.62  607.67</time>
   <energy>
    <i name="e_fr_energy">   -730.89628511 </i>
    <i name="e_wo_entrp">   -730.89628511 </i>
    <i name="e_0_energy">   -730.89628511 </i>
   </energy>
  </scstep>
  <scstep>
   <time name="dav">  469.00  474.45</time>
   <time name="total">  469.01  474.45</time>
   <energy>
    <i name="alphaZ">     34.69258221 </i>
    <i name="ewald">  39502.14537198 </i>
    <i name="hartreedc"> -49775.56778627 </i>
    <i name="XCdc">   1155.30871417 </i>
    <i name="pawpsdc">  31506.26942158 </i>
    <i name="pawaedc"> -31566.50386187 </i>
    <i name="eentropy">     -0.00000000 </i>
    <i name="bandstr">  -4279.85711102 </i>
    <i name="atom">  12692.61638395 </i>
    <i name="e_fr_energy">   -730.89628527 </i>
    <i name="e_wo_entrp">   -730.89628527 </i>
    <i name="e_0_energy">   -730.89628527 </i>
   </energy>
  </scstep>
  <structure>
   <crystal>
    <varray name="basis" >
     <v>      29.26615549       0.00000000       0.00000000 </v>
     <v>     -14.63307775      25.34523413       0.00000000 </v>
     <v>       0.00000000       0.00000000      20.00000000 </v>
    </varray>
    <i name="volume">  14835.15125930 </i>
    <varray name="rec_basis" >
     <v>       0.03416916       0.01972757       0.00000000 </v>
     <v>       0.00000000       0.03945515       0.00000000 </v>
     <v>       0.00000000       0.00000000       0.05000000 </v>
    </varray>
   </crystal>
   <varray name="positions" >
    <v>       0.02944335       0.51472168       0.56372255 </v>
    <v>       0.38754042       0.69377021       0.50288360 </v>
    <v>       0.30622979       0.61245958       0.50288360 </v>
    <v>       0.30622979       0.69377021       0.50288360 </v>
    <v>       0.61245520       0.30622760       0.50116449 </v>
    <v>       0.69377240       0.38754480       0.50116449 </v>
    <v>       0.69377240       0.30622760       0.50116449 </v>
    <v>       0.48527832       0.51472168       0.56372255 </v>
    <v>       0.53565324       0.46434676       0.67856273 </v>
    <v>       0.48527832       0.97055665       0.56372255 </v>
    <v>       0.53565324       0.07130648       0.67856273 </v>
    <v>       0.92869352       0.46434676       0.67856273 </v>
    <v>       0.51432037       0.48567963       0.44408121 </v>
    <v>       0.51432037       0.02864074       0.44408121 </v>
    <v>       0.97135926       0.48567963       0.44408121 </v>
    <v>       0.02408879       0.51204439       0.44456929 </v>
    <v>       0.35924495       0.71848991       0.50289022 </v>
    <v>       0.35924495       0.64075505       0.50289022 </v>
    <v>       0.28151009       0.64075505       0.50289022 </v>
    <v>       0.38844655       0.61155345       0.50279638 </v>
    <v>       0.44385200       0.63894187       0.50278725 </v>
    <v>       0.47130345       0.61148068       0.50298065 </v>
    <v>       0.44384117       0.55615883       0.50330572 </v>
    <v>       0.38851932       0.52869655       0.50298065 </v>
    <v>       0.36105813       0.55614800       0.50278725 </v>
    <v>       0.38844655       0.77689310       0.50279638 </v>
    <v>       0.44385200       0.80491013       0.50278725 </v>
    <v>       0.47130345       0.85982277       0.50298065 </v>
    <v>       0.44384117       0.88768235       0.50330572 </v>
    <v>       0.38851932       0.85982277       0.50298065 </v>
    <v>       0.36105813       0.80491013       0.50278725 </v>
    <v>       0.22310690       0.61155345       0.50279638 </v>
    <v>       0.19508987       0.63894187       0.50278725 </v>
    <v>       0.14017723       0.61148068       0.50298065 </v>
    <v>       0.11231765       0.55615883       0.50330572 </v>
    <v>       0.14017723       0.52869655       0.50298065 </v>
    <v>       0.19508987       0.55614800       0.50278725 </v>
    <v>       0.64074626       0.28149251       0.50129111 </v>
    <v>       0.64074626       0.35925374       0.50129111 </v>
    <v>       0.71850749       0.35925374       0.50129111 </v>
    <v>       0.61151637       0.38848363       0.50199319 </v>
    <v>       0.55611337       0.36113202       0.50254150 </v>
    <v>       0.52865092       0.38857659       0.50338909 </v>
    <v>       0.55610404       0.44389596       0.50359906 </v>
    <v>       0.61142341       0.47134908       0.50338909 </v>
    <v>       0.63886798       0.44388663       0.50254150 </v>
    <v>       0.61151637       0.22303274       0.50199319 </v>
    <v>       0.55611337       0.19498135       0.50254150 </v>
    <v>       0.52865092       0.14007433       0.50338909 </v>
    <v>       0.55610404       0.11220807       0.50359906 </v>
    <v>       0.61142341       0.14007433       0.50338909 </v>
    <v>       0.63886798       0.19498135       0.50254150 </v>
    <v>       0.77696726       0.38848363       0.50199319 </v>
    <v>       0.80501865       0.36113202       0.50254150 </v>
    <v>       0.85992567       0.38857659       0.50338909 </v>
    <v>       0.88779193       0.44389596       0.50359906 </v>
    <v>       0.85992567       0.47134908       0.50338909 </v>
    <v>       0.80501865       0.44388663       0.50254150 </v>
    <v>       0.52674672       0.47325328       0.50337652 </v>
    <v>       0.47319783       0.52680217       0.50416018 </v>
    <v>       0.51184292       0.48815708       0.56318614 </v>
    <v>       0.52482653       0.47517347       0.62703412 </v>
    <v>       0.52674672       0.05349344       0.50337652 </v>
    <v>       0.47319783       0.94639566       0.50416018 </v>
    <v>       0.51184292       0.02368585       0.56318614 </v>
    <v>       0.52482653       0.04965306       0.62703412 </v>
    <v>       0.94650656       0.47325328       0.50337652 </v>
    <v>       0.05360434       0.52680217       0.50416018 </v>
    <v>       0.97631415       0.48815708       0.56318614 </v>
    <v>       0.95034694       0.47517347       0.62703412 </v>
    <v>       0.48795561       0.51204439       0.44456929 </v>
    <v>       0.48795561       0.97591121       0.44456929 </v>
    <v>       0.04390421       0.52195210       0.39600862 </v>
    <v>       0.51435266       0.88137648       0.50342155 </v>
    <v>       0.46482581       0.78291391       0.50286706 </v>
    <v>       0.36702383       0.88137648       0.50342155 </v>
    <v>       0.31808810       0.78291391       0.50286706 </v>
    <v>       0.21708609       0.68191190       0.50286706 </v>
    <v>       0.11862352       0.63297617       0.50342155 </v>
    <v>       0.21708609       0.53517419       0.50286706 </v>
    <v>       0.11862352       0.48564734       0.50342155 </v>
    <v>       0.31808810       0.53517419       0.50286706 </v>
    <v>       0.36702383       0.48564734       0.50342155 </v>
    <v>       0.51435266       0.63297617       0.50342155 </v>
    <v>       0.46482581       0.68191190       0.50286706 </v>
    <v>       0.48561290       0.11856216       0.50372962 </v>
    <v>       0.53509849       0.21693455       0.50232310 </v>
    <v>       0.63294926       0.11856216       0.50372962 </v>
    <v>       0.68183606       0.21693455       0.50232310 </v>
    <v>       0.78306545       0.31816394       0.50232310 </v>
    <v>       0.88143784       0.36705074       0.50372962 </v>
    <v>       0.78306545       0.46490151       0.50232310 </v>
    <v>       0.88143784       0.51438710       0.50372962 </v>
    <v>       0.68183606       0.46490151       0.50232310 </v>
    <v>       0.63294926       0.51438710       0.50372962 </v>
    <v>       0.48561290       0.36705074       0.50372962 </v>
    <v>       0.53509849       0.31816394       0.50232310 </v>
    <v>       0.47804790       0.52195210       0.39600862 </v>
    <v>       0.47804790       0.95609579       0.39600862 </v>
   </varray>
  </structure>
  <varray name="forces" >
   <v>       0.00052903       0.00030543       0.00344087 </v>
   <v>      -0.00384613      -0.00222056      -0.00526002 </v>
   <v>      -0.00000000       0.00444113      -0.00526002 </v>
   <v>       0.00384613      -0.00222056      -0.00526002 </v>
   <v>      -0.00011528      -0.00006656       0.00012301 </v>
   <v>       0.00000000       0.00013312       0.00012301 </v>
   <v>       0.00011528      -0.00006656       0.00012301 </v>
   <v>      -0.00052903       0.00030543       0.00344087 </v>
   <v>      -0.00094374       0.00054487      -0.00801894 </v>
   <v>       0.00000000      -0.00061087       0.00344087 </v>
   <v>       0.00000000      -0.00108974      -0.00801894 </v>
   <v>       0.00094374       0.00054487      -0.00801894 </v>
   <v>      -0.00041608       0.00024022      -0.00169113 </v>
   <v>       0.00000000      -0.00048044      -0.00169113 </v>
   <v>       0.00041608       0.00024022      -0.00169113 </v>
   <v>       0.00275420       0.00159014      -0.00174617 </v>
   <v>      -0.00000000       0.00037263      -0.00532813 </v>
   <v>       0.00032271      -0.00018631      -0.00532813 </v>
   <v>      -0.00032271      -0.00018631      -0.00532813 </v>
   <v>       0.00027574      -0.00015920      -0.00585043 </v>
   <v>      -0.00457442       0.00249173       0.00198852 </v>
   <v>      -0.00025135      -0.00122503       0.00370388 </v>
   <v>       0.00077868      -0.00044957       0.00194766 </v>
   <v>       0.00093523       0.00083019       0.00370388 </v>
   <v>      -0.00444511       0.00271570       0.00198852 </v>
   <v>      -0.00000000       0.00031840      -0.00585043 </v>
   <v>      -0.00012931      -0.00520743       0.00198852 </v>
   <v>      -0.00118658       0.00039484       0.00370388 </v>
   <v>      -0.00000000       0.00089914       0.00194766 </v>
   <v>       0.00118658       0.00039484       0.00370388 </v>
   <v>       0.00012931      -0.00520743       0.00198852 </v>
   <v>      -0.00027574      -0.00015920      -0.00585043 </v>
   <v>       0.00457442       0.00249173       0.00198852 </v>
   <v>       0.00025135      -0.00122503       0.00370388 </v>
   <v>      -0.00077868      -0.00044957       0.00194766 </v>
   <v>      -0.00093523       0.00083019       0.00370388 </v>
   <v>       0.00444511       0.00271570       0.00198852 </v>
   <v>      -0.00000000       0.00080223      -0.00015074 </v>
   <v>       0.00069475      -0.00040112      -0.00015074 </v>
   <v>      -0.00069475      -0.00040112      -0.00015074 </v>
   <v>       0.00064067      -0.00036989       0.00336225 </v>
   <v>       0.00195484      -0.00288567       0.00214961 </v>
   <v>      -0.00089935       0.00120822      -0.00326051 </v>
   <v>       0.00376880      -0.00217592      -0.00374405 </v>
   <v>      -0.00149602       0.00017475      -0.00326051 </v>
   <v>       0.00347648      -0.00025010       0.00214961 </v>
   <v>      -0.00000000       0.00073978       0.00336225 </v>
   <v>      -0.00152165       0.00313577       0.00214961 </v>
   <v>       0.00059667      -0.00138297      -0.00326051 </v>
   <v>      -0.00000000       0.00435183      -0.00374405 </v>
   <v>      -0.00059667      -0.00138297      -0.00326051 </v>
   <v>       0.00152165       0.00313577       0.00214961 </v>
   <v>      -0.00064067      -0.00036989       0.00336225 </v>
   <v>      -0.00195484      -0.00288567       0.00214961 </v>
   <v>       0.00089935       0.00120822      -0.00326051 </v>
   <v>      -0.00376880      -0.00217592      -0.00374405 </v>
   <v>       0.00149602       0.00017475      -0.00326051 </v>
   <v>      -0.00347648      -0.00025010       0.00214961 </v>
   <v>       0.00542421      -0.00313167       0.00341895 </v>
   <v>       0.00136587      -0.00078858       0.00382382 </v>
   <v>       0.00636353      -0.00367399      -0.00282311 </v>
   <v>       0.00536751      -0.00309893       0.00105937 </v>
   <v>      -0.00000000       0.00626333       0.00341895 </v>
   <v>      -0.00000000       0.00157717       0.00382382 </v>
   <v>      -0.00000000       0.00734797      -0.00282311 </v>
   <v>      -0.00000000       0.00619786       0.00105937 </v>
   <v>      -0.00542421      -0.00313167       0.00341895 </v>
   <v>      -0.00136587      -0.00078858       0.00382382 </v>
   <v>      -0.00636353      -0.00367399      -0.00282311 </v>
   <v>      -0.00536751      -0.00309893       0.00105937 </v>
   <v>      -0.00275420       0.00159014      -0.00174617 </v>
   <v>       0.00000000      -0.00318028      -0.00174617 </v>
   <v>      -0.00139917      -0.00080781       0.00324299 </v>
   <v>      -0.00425381       0.00081375       0.00186448 </v>
   <v>       0.00275251       0.00132288       0.00000284 </v>
   <v>       0.00425381       0.00081375       0.00186448 </v>
   <v>      -0.00275251       0.00132288       0.00000284 </v>
   <v>      -0.00252191       0.00172230       0.00000284 </v>
   <v>       0.00142218      -0.00409078       0.00186448 </v>
   <v>       0.00023061      -0.00304519       0.00000284 </v>
   <v>      -0.00283163       0.00327703       0.00186448 </v>
   <v>      -0.00023061      -0.00304519       0.00000284 </v>
   <v>       0.00283163       0.00327703       0.00186448 </v>
   <v>      -0.00142218      -0.00409078       0.00186448 </v>
   <v>       0.00252191       0.00172230       0.00000284 </v>
   <v>      -0.00155353      -0.00254865      -0.00099924 </v>
   <v>      -0.00236039      -0.00044103       0.00164732 </v>
   <v>       0.00155353      -0.00254865      -0.00099924 </v>
   <v>       0.00236039      -0.00044103       0.00164732 </v>
   <v>       0.00156214      -0.00182364       0.00164732 </v>
   <v>       0.00298396      -0.00007107      -0.00099924 </v>
   <v>      -0.00079825       0.00226467       0.00164732 </v>
   <v>       0.00143044       0.00261972      -0.00099924 </v>
   <v>       0.00079825       0.00226467       0.00164732 </v>
   <v>      -0.00143044       0.00261972      -0.00099924 </v>
   <v>      -0.00298396      -0.00007107      -0.00099924 </v>
   <v>      -0.00156214      -0.00182364       0.00164732 </v>
   <v>       0.00139917      -0.00080781       0.00324299 </v>
   <v>      -0.00000000       0.00161562       0.00324299 </v>
  </varray>
  <varray name="stress" >
   <v>      -0.00331504       0.00000000      -0.00000000 </v>
   <v>       0.00000000      -0.00331504       0.00000000 </v>
   <v>      -0.00000000       0.00000000      -0.11851541 </v>
  </varray>
  <energy>
   <i name="e_fr_energy">   -732.80889626 </i>
   <i name="e_wo_entrp">   -732.80889626 </i>
   <i name="e_0_energy">     -0.00000000 </i>
  </energy>
  <time name="totalsc"> 4154.51 4204.19</time>
  <eigenvalues>
   <array>
    <dimension dim="1">band</dimension>
    <dimension dim="2">kpoint</dimension>
    <dimension dim="3">spin</dimension>
    <field>eigene</field>
    <field>occ</field>
    <set>
     <set comment="spin 1">
      <set comment="kpoint 1">
       <r>  -25.5997    1.0000 </r>
       <r>  -25.4303    1.0000 </r>
       <r>  -25.1450    1.0000 </r>
       <r>  -25.1450    1.0000 </r>
       <r>  -25.1448    1.0000 </r>
       <r>  -23.2797    1.0000 </r>
       <r>  -23.2797    1.0000 </r>
       <r>  -23.2791    1.0000 </r>
       <r>  -22.6823    1.0000 </r>
       <r>  -22.6823    1.0000 </r>
       <r>  -22.5196    1.0000 </r>
       <r>  -22.5195    1.0000 </r>
       <r>  -22.4753    1.0000 </r>
       <r>  -22.4656    1.0000 </r>
       <r>  -22.4653    1.0000 </r>
       <r>  -21.6981    1.0000 </r>
       <r>  -21.6343    1.0000 </r>
       <r>  -21.6339    1.0000 </r>
       <r>  -21.5434    1.0000 </r>
       <r>  -21.4739    1.0000 </r>
       <r>  -21.4729    1.0000 </r>
       <r>  -20.4336    1.0000 </r>
       <r>  -20.4333    1.0000 </r>
       <r>  -20.4282    1.0000 </r>
       <r>  -19.5061    1.0000 </r>
       <r>  -19.5054    1.0000 </r>
       <r>  -19.3579    1.0000 </r>
       <r>  -18.8982    1.0000 </r>
       <r>  -18.8979    1.0000 </r>
       <r>  -18.7651    1.0000 </r>
       <r>  -18.7205    1.0000 </r>
       <r>  -18.7199    1.0000 </r>
       <r>  -18.6185    1.0000 </r>
       <r>  -18.5841    1.0000 </r>
       <r>  -18.5829    1.0000 </r>
       <r>  -18.5765    1.0000 </r>
       <r>  -17.5546    1.0000 </r>
       <r>  -17.5541    1.0000 </r>
       <r>  -17.4577    1.0000 </r>
       <r>  -17.4577    1.0000 </r>
       <r>  -17.4114    1.0000 </r>
       <r>  -16.9795    1.0000 </r>
       <r>  -16.7367    1.0000 </r>
       <r>  -16.7362    1.0000 </r>
       <r>  -16.0646    1.0000 </r>
       <r>  -16.0643    1.0000 </r>
       <r>  -15.5408    1.0000 </r>
       <r>  -15.4838    1.0000 </r>
       <r>  -15.3406    1.0000 </r>
       <r>  -15.2117    1.0000 </r>
       <r>  -15.2115    1.0000 </r>
       <r>  -15.1020    1.0000 </r>
       <r>  -15.0566    1.0000 </r>
       <r>  -15.0555    1.0000 </r>
       <r>  -14.6462    1.0000 </r>
       <r>  -14.6460    1.0000 </r>
       <r>  -14.3909    1.0000 </r>
       <r>  -14.3900    1.0000 </r>
       <r>  -13.9562    1.0000 </r>
       <r>  -13.9170    1.0000 </r>
       <r>  -13.9169    1.0000 </r>
       <r>  -13.6095    1.0000 </r>
       <r>  -13.5945    1.0000 </r>
       <r>  -13.5945    1.0000 </r>
       <r>  -13.5543    1.0000 </r>
       <r>  -13.4659    1.0000 </r>
       <r>  -13.4027    1.0000 </r>
       <r>  -13.4000    1.0000 </r>
       <r>  -13.0492    1.0000 </r>
       <r>  -13.0483    1.0000 </r>
       <r>  -12.6593    1.0000 </r>
       <r>  -12.5496    1.0000 </r>
       <r>  -12.5494    1.0000 </r>
       <r>  -11.9171    1.0000 </r>
       <r>  -11.8623    1.0000 </r>
       <r>  -11.8621    1.0000 </r>
       <r>  -11.7480    1.0000 </r>
       <r>  -11.7477    1.0000 </r>
       <r>  -11.5245    1.0000 </r>
       <r>  -11.4543    1.0000 </r>
       <r>  -11.3344    1.0000 </r>
       <r>  -11.3343    1.0000 </r>
       <r>  -11.2957    1.0000 </r>
       <r>  -11.2955    1.0000 </r>
       <r>  -11.2819    1.0000 </r>
       <r>  -11.1100    1.0000 </r>
       <r>  -11.1072    1.0000 </r>
       <r>  -10.9774    1.0000 </r>
       <r>  -10.9766    1.0000 </r>
       <r>  -10.9490    1.0000 </r>
       <r>  -10.7420    1.0000 </r>
       <r>  -10.7418    1.0000 </r>
       <r>  -10.6886    1.0000 </r>
       <r>  -10.6304    1.0000 </r>
       <r>  -10.5136    1.0000 </r>
       <r>  -10.5132    1.0000 </r>
       <r>  -10.3865    1.0000 </r>
       <r>  -10.3756    1.0000 </r>
       <r>  -10.3750    1.0000 </r>
       <r>  -10.2785    1.0000 </r>
       <r>  -10.2781    1.0000 </r>
       <r>  -10.2401    1.0000 </r>
       <r>  -10.0575    1.0000 </r>
       <r>  -10.0568    1.0000 </r>
       <r>   -9.7177    1.0000 </r>
       <r>   -9.7173    1.0000 </r>
       <r>   -9.5551    1.0000 </r>
       <r>   -9.5538    1.0000 </r>
       <r>   -9.2514    1.0000 </r>
       <r>   -9.1905    1.0000 </r>
       <r>   -9.1766    1.0000 </r>
       <r>   -9.1764    1.0000 </r>
       <r>   -9.1739    1.0000 </r>
       <r>   -9.0929    1.0000 </r>
       <r>   -9.0102    1.0000 </r>
       <r>   -8.8520    1.0000 </r>
       <r>   -8.8518    1.0000 </r>
       <r>   -8.8461    1.0000 </r>
       <r>   -8.6989    1.0000 </r>
       <r>   -8.6981    1.0000 </r>
       <r>   -8.6840    1.0000 </r>
       <r>   -8.6412    1.0000 </r>
       <r>   -8.6412    1.0000 </r>
       <r>   -8.5822    1.0000 </r>
       <r>   -8.4709    1.0000 </r>
       <r>   -8.4689    1.0000 </r>
       <r>   -8.4687    1.0000 </r>
       <r>   -8.4541    1.0000 </r>
       <r>   -8.4538    1.0000 </r>
       <r>   -8.4104    1.0000 </r>
       <r>   -8.4095    1.0000 </r>
       <r>   -8.3170    1.0000 </r>
       <r>   -8.3168    1.0000 </r>
       <r>   -8.3104    1.0000 </r>
       <r>   -8.3083    1.0000 </r>
       <r>   -8.1867    1.0000 </r>
       <r>   -8.1866    1.0000 </r>
       <r>   -8.1811    1.0000 </r>
       <r>   -8.1811    1.0000 </r>
       <r>   -8.1396    1.0000 </r>
       <r>   -7.5652    1.0000 </r>
       <r>   -7.5208    1.0000 </r>
       <r>   -7.5207    1.0000 </r>
       <r>   -6.9709    1.0000 </r>
       <r>   -6.9708    1.0000 </r>
       <r>   -6.9575    1.0000 </r>
       <r>   -6.6676    1.0000 </r>
       <r>   -6.6672    1.0000 </r>
       <r>   -6.6417    1.0000 </r>
       <r>   -6.5978    1.0000 </r>
       <r>   -6.5119    1.0000 </r>
       <r>   -6.5109    1.0000 </r>
       <r>   -6.4825    1.0000 </r>
       <r>   -6.4313    1.0000 </r>
       <r>   -6.4312    1.0000 </r>
       <r>   -6.3687    1.0000 </r>
       <r>   -6.2354    1.0000 </r>
       <r>   -6.2351    1.0000 </r>
       <r>   -6.1621    1.0000 </r>
       <r>   -6.1620    1.0000 </r>
       <r>   -6.1271    1.0000 </r>
       <r>   -6.1097    1.0000 </r>
       <r>   -6.1096    1.0000 </r>
       <r>   -5.9923    1.0000 </r>
       <r>   -5.9909    1.0000 </r>
       <r>   -3.1667    0.0000 </r>
       <r>   -3.1667    0.0000 </r>
       <r>   -3.1615    0.0000 </r>
       <r>   -2.9925    0.0000 </r>
       <r>   -2.9924    0.0000 </r>
       <r>   -2.8357    0.0000 </r>
       <r>   -2.8353    0.0000 </r>
       <r>   -2.4674    0.0000 </r>
       <r>   -2.4673    0.0000 </r>
       <r>   -2.4656    0.0000 </r>
       <r>   -1.9032    0.0000 </r>
       <r>   -1.7352    0.0000 </r>
       <r>   -1.4618    0.0000 </r>
       <r>   -1.4614    0.0000 </r>
       <r>   -1.4519    0.0000 </r>
       <r>   -1.2982    0.0000 </r>
       <r>   -1.2970    0.0000 </r>
       <r>   -1.2871    0.0000 </r>
       <r>   -0.6477    0.0000 </r>
       <r>   -0.6474    0.0000 </r>
       <r>   -0.5460    0.0000 </r>
       <r>   -0.4251    0.0000 </r>
       <r>   -0.4247    0.0000 </r>
       <r>   -0.3537    0.0000 </r>
       <r>   -0.3244    0.0000 </r>
       <r>   -0.3239    0.0000 </r>
       <r>   -0.2592    0.0000 </r>
       <r>   -0.1717    0.0000 </r>
       <r>   -0.1713    0.0000 </r>
       <r>   -0.1131    0.0000 </r>
       <r>   -0.1121    0.0000 </r>
       <r>    0.1358    0.0000 </r>
       <r>    0.1586    0.0000 </r>
       <r>    0.1591    0.0000 </r>
       <r>    0.1782    0.0000 </r>
       <r>    0.1822    0.0000 </r>
       <r>    0.2651    0.0000 </r>
       <r>    0.2652    0.0000 </r>
       <r>    0.2745    0.0000 </r>
       <r>    0.2747    0.0000 </r>
       <r>    0.2865    0.0000 </r>
       <r>    0.3891    0.0000 </r>
       <r>    0.4287    0.0000 </r>
       <r>    0.4289    0.0000 </r>
       <r>    0.4702    0.0000 </r>
       <r>    0.4769    0.0000 </r>
       <r>    0.5572    0.0000 </r>
       <r>    0.6557    0.0000 </r>
       <r>    0.6566    0.0000 </r>
       <r>    0.7148    0.0000 </r>
       <r>    0.7155    0.0000 </r>
       <r>    0.7541    0.0000 </r>
       <r>    0.7636    0.0000 </r>
       <r>    0.7641    0.0000 </r>
       <r>    0.7913    0.0000 </r>
       <r>    0.8556    0.0000 </r>
       <r>    0.8620    0.0000 </r>
       <r>    0.8649    0.0000 </r>
       <r>    0.8813    0.0000 </r>
      </set>
      <set comment="kpoint 2">
       <r>  -25.5997    1.0000 </r>
       <r>  -25.4303    1.0000 </r>
       <r>  -25.1450    1.0000 </r>
       <r>  -25.1450    1.0000 </r>
       <r>  -25.1448    1.0000 </r>
       <r>  -23.2797    1.0000 </r>
       <r>  -23.2797    1.0000 </r>
       <r>  -23.2791    1.0000 </r>
       <r>  -22.6823    1.0000 </r>
       <r>  -22.6823    1.0000 </r>
       <r>  -22.5196    1.0000 </r>
       <r>  -22.5195    1.0000 </r>
       <r>  -22.4752    1.0000 </r>
       <r>  -22.4656    1.0000 </r>
       <r>  -22.4653    1.0000 </r>
       <r>  -21.6981    1.0000 </r>
       <r>  -21.6343    1.0000 </r>
       <r>  -21.6339    1.0000 </r>
       <r>  -21.5433    1.0000 </r>
       <r>  -21.4739    1.0000 </r>
       <r>  -21.4729    1.0000 </r>
       <r>  -20.4336    1.0000 </r>
       <r>  -20.4333    1.0000 </r>
       <r>  -20.4282    1.0000 </r>
       <r>  -19.5060    1.0000 </r>
       <r>  -19.5053    1.0000 </r>
       <r>  -19.3582    1.0000 </r>
       <r>  -18.8982    1.0000 </r>
       <r>  -18.8975    1.0000 </r>
       <r>  -18.7651    1.0000 </r>
       <r>  -18.7205    1.0000 </r>
       <r>  -18.7199    1.0000 </r>
       <r>  -18.6185    1.0000 </r>
       <r>  -18.5847    1.0000 </r>
       <r>  -18.5830    1.0000 </r>
       <r>  -18.5761    1.0000 </r>
       <r>  -17.5545    1.0000 </r>
       <r>  -17.5538    1.0000 </r>
       <r>  -17.4578    1.0000 </r>
       <r>  -17.4577    1.0000 </r>
       <r>  -17.4113    1.0000 </r>
       <r>  -16.9817    1.0000 </r>
       <r>  -16.7366    1.0000 </r>
       <r>  -16.7340    1.0000 </r>
       <r>  -16.0654    1.0000 </r>
       <r>  -16.0645    1.0000 </r>
       <r>  -15.5400    1.0000 </r>
       <r>  -15.4838    1.0000 </r>
       <r>  -15.3406    1.0000 </r>
       <r>  -15.2119    1.0000 </r>
       <r>  -15.2115    1.0000 </r>
       <r>  -15.1023    1.0000 </r>
       <r>  -15.0565    1.0000 </r>
       <r>  -15.0555    1.0000 </r>
       <r>  -14.6462    1.0000 </r>
       <r>  -14.6460    1.0000 </r>
       <r>  -14.3909    1.0000 </r>
       <r>  -14.3900    1.0000 </r>
       <r>  -13.9561    1.0000 </r>
       <r>  -13.9170    1.0000 </r>
       <r>  -13.9170    1.0000 </r>
       <r>  -13.6095    1.0000 </r>
       <r>  -13.5945    1.0000 </r>
       <r>  -13.5945    1.0000 </r>
       <r>  -13.5543    1.0000 </r>
       <r>  -13.4658    1.0000 </r>
       <r>  -13.4027    1.0000 </r>
       <r>  -13.4001    1.0000 </r>
       <r>  -13.0492    1.0000 </r>
       <r>  -13.0482    1.0000 </r>
       <r>  -12.6593    1.0000 </r>
       <r>  -12.5495    1.0000 </r>
       <r>  -12.5494    1.0000 </r>
       <r>  -11.9196    1.0000 </r>
       <r>  -11.8625    1.0000 </r>
       <r>  -11.8598    1.0000 </r>
       <r>  -11.7475    1.0000 </r>
       <r>  -11.7472    1.0000 </r>
       <r>  -11.5247    1.0000 </r>
       <r>  -11.4543    1.0000 </r>
       <r>  -11.3358    1.0000 </r>
       <r>  -11.3353    1.0000 </r>
       <r>  -11.2947    1.0000 </r>
       <r>  -11.2944    1.0000 </r>
       <r>  -11.2819    1.0000 </r>
       <r>  -11.1098    1.0000 </r>
       <r>  -11.1075    1.0000 </r>
       <r>  -10.9777    1.0000 </r>
       <r>  -10.9770    1.0000 </r>
       <r>  -10.9482    1.0000 </r>
       <r>  -10.7420    1.0000 </r>
       <r>  -10.7416    1.0000 </r>
       <r>  -10.6891    1.0000 </r>
       <r>  -10.6305    1.0000 </r>
       <r>  -10.5134    1.0000 </r>
       <r>  -10.5131    1.0000 </r>
       <r>  -10.3865    1.0000 </r>
       <r>  -10.3754    1.0000 </r>
       <r>  -10.3749    1.0000 </r>
       <r>  -10.2785    1.0000 </r>
       <r>  -10.2781    1.0000 </r>
       <r>  -10.2401    1.0000 </r>
       <r>  -10.0575    1.0000 </r>
       <r>  -10.0569    1.0000 </r>
       <r>   -9.7177    1.0000 </r>
       <r>   -9.7173    1.0000 </r>
       <r>   -9.5551    1.0000 </r>
       <r>   -9.5539    1.0000 </r>
       <r>   -9.2513    1.0000 </r>
       <r>   -9.1904    1.0000 </r>
       <r>   -9.1766    1.0000 </r>
       <r>   -9.1764    1.0000 </r>
       <r>   -9.1739    1.0000 </r>
       <r>   -9.0930    1.0000 </r>
       <r>   -9.0103    1.0000 </r>
       <r>   -8.8520    1.0000 </r>
       <r>   -8.8518    1.0000 </r>
       <r>   -8.8461    1.0000 </r>
       <r>   -8.6989    1.0000 </r>
       <r>   -8.6982    1.0000 </r>
       <r>   -8.6840    1.0000 </r>
       <r>   -8.6412    1.0000 </r>
       <r>   -8.6411    1.0000 </r>
       <r>   -8.5822    1.0000 </r>
       <r>   -8.4709    1.0000 </r>
       <r>   -8.4689    1.0000 </r>
       <r>   -8.4687    1.0000 </r>
       <r>   -8.4541    1.0000 </r>
       <r>   -8.4538    1.0000 </r>
       <r>   -8.4103    1.0000 </r>
       <r>   -8.4094    1.0000 </r>
       <r>   -8.3188    1.0000 </r>
       <r>   -8.3169    1.0000 </r>
       <r>   -8.3085    1.0000 </r>
       <r>   -8.3084    1.0000 </r>
       <r>   -8.1867    1.0000 </r>
       <r>   -8.1865    1.0000 </r>
       <r>   -8.1811    1.0000 </r>
       <r>   -8.1811    1.0000 </r>
       <r>   -8.1396    1.0000 </r>
       <r>   -7.5651    1.0000 </r>
       <r>   -7.5208    1.0000 </r>
       <r>   -7.5208    1.0000 </r>
       <r>   -6.9709    1.0000 </r>
       <r>   -6.9708    1.0000 </r>
       <r>   -6.9575    1.0000 </r>
       <r>   -6.6676    1.0000 </r>
       <r>   -6.6672    1.0000 </r>
       <r>   -6.6417    1.0000 </r>
       <r>   -6.5977    1.0000 </r>
       <r>   -6.5118    1.0000 </r>
       <r>   -6.5109    1.0000 </r>
       <r>   -6.4825    1.0000 </r>
       <r>   -6.4316    1.0000 </r>
       <r>   -6.4312    1.0000 </r>
       <r>   -6.3684    1.0000 </r>
       <r>   -6.2354    1.0000 </r>
       <r>   -6.2351    1.0000 </r>
       <r>   -6.1621    1.0000 </r>
       <r>   -6.1620    1.0000 </r>
       <r>   -6.1270    1.0000 </r>
       <r>   -6.1097    1.0000 </r>
       <r>   -6.1096    1.0000 </r>
       <r>   -5.9923    1.0000 </r>
       <r>   -5.9909    1.0000 </r>
       <r>   -3.1668    0.0000 </r>
       <r>   -3.1667    0.0000 </r>
       <r>   -3.1615    0.0000 </r>
       <r>   -2.9925    0.0000 </r>
       <r>   -2.9924    0.0000 </r>
       <r>   -2.8357    0.0000 </r>
       <r>   -2.8353    0.0000 </r>
       <r>   -2.4674    0.0000 </r>
       <r>   -2.4672    0.0000 </r>
       <r>   -2.4656    0.0000 </r>
       <r>   -1.9031    0.0000 </r>
       <r>   -1.7353    0.0000 </r>
       <r>   -1.4618    0.0000 </r>
       <r>   -1.4614    0.0000 </r>
       <r>   -1.4519    0.0000 </r>
       <r>   -1.2982    0.0000 </r>
       <r>   -1.2970    0.0000 </r>
       <r>   -1.2872    0.0000 </r>
       <r>   -0.6476    0.0000 </r>
       <r>   -0.6472    0.0000 </r>
       <r>   -0.5460    0.0000 </r>
       <r>   -0.4253    0.0000 </r>
       <r>   -0.4249    0.0000 </r>
       <r>   -0.3543    0.0000 </r>
       <r>   -0.3243    0.0000 </r>
       <r>   -0.3233    0.0000 </r>
       <r>   -0.2588    0.0000 </r>
       <r>   -0.1717    0.0000 </r>
       <r>   -0.1713    0.0000 </r>
       <r>   -0.1130    0.0000 </r>
       <r>   -0.1119    0.0000 </r>
       <r>    0.1350    0.0000 </r>
       <r>    0.1567    0.0000 </r>
       <r>    0.1586    0.0000 </r>
       <r>    0.1796    0.0000 </r>
       <r>    0.1821    0.0000 </r>
       <r>    0.2643    0.0000 </r>
       <r>    0.2647    0.0000 </r>
       <r>    0.2745    0.0000 </r>
       <r>    0.2757    0.0000 </r>
       <r>    0.2883    0.0000 </r>
       <r>    0.3883    0.0000 </r>
       <r>    0.4290    0.0000 </r>
       <r>    0.4300    0.0000 </r>
       <r>    0.4705    0.0000 </r>
       <r>    0.4773    0.0000 </r>
       <r>    0.5570    0.0000 </r>
       <r>    0.6559    0.0000 </r>
       <r>    0.6567    0.0000 </r>
       <r>    0.7144    0.0000 </r>
       <r>    0.7151    0.0000 </r>
       <r>    0.7527    0.0000 </r>
       <r>    0.7641    0.0000 </r>
       <r>    0.7647    0.0000 </r>
       <r>    0.7916    0.0000 </r>
       <r>    0.8539    0.0000 </r>
       <r>    0.8632    0.0000 </r>
       <r>    0.8656    0.0000 </r>
       <r>    0.8816    0.0000 </r>
      </set>
      <set comment="kpoint 3">
       <r>  -25.5997    1.0000 </r>
       <r>  -25.4303    1.0000 </r>
       <r>  -25.1450    1.0000 </r>
       <r>  -25.1450    1.0000 </r>
       <r>  -25.1448    1.0000 </r>
       <r>  -23.2797    1.0000 </r>
       <r>  -23.2797    1.0000 </r>
       <r>  -23.2791    1.0000 </r>
       <r>  -22.6823    1.0000 </r>
       <r>  -22.6823    1.0000 </r>
       <r>  -22.5196    1.0000 </r>
       <r>  -22.5195    1.0000 </r>
       <r>  -22.4752    1.0000 </r>
       <r>  -22.4656    1.0000 </r>
       <r>  -22.4653    1.0000 </r>
       <r>  -21.6980    1.0000 </r>
       <r>  -21.6344    1.0000 </r>
       <r>  -21.6340    1.0000 </r>
       <r>  -21.5431    1.0000 </r>
       <r>  -21.4740    1.0000 </r>
       <r>  -21.4730    1.0000 </r>
       <r>  -20.4336    1.0000 </r>
       <r>  -20.4333    1.0000 </r>
       <r>  -20.4282    1.0000 </r>
       <r>  -19.5060    1.0000 </r>
       <r>  -19.5049    1.0000 </r>
       <r>  -19.3592    1.0000 </r>
       <r>  -18.8982    1.0000 </r>
       <r>  -18.8963    1.0000 </r>
       <r>  -18.7651    1.0000 </r>
       <r>  -18.7206    1.0000 </r>
       <r>  -18.7200    1.0000 </r>
       <r>  -18.6185    1.0000 </r>
       <r>  -18.5865    1.0000 </r>
       <r>  -18.5831    1.0000 </r>
       <r>  -18.5752    1.0000 </r>
       <r>  -17.5545    1.0000 </r>
       <r>  -17.5526    1.0000 </r>
       <r>  -17.4578    1.0000 </r>
       <r>  -17.4577    1.0000 </r>
       <r>  -17.4109    1.0000 </r>
       <r>  -16.9878    1.0000 </r>
       <r>  -16.7366    1.0000 </r>
       <r>  -16.7275    1.0000 </r>
       <r>  -16.0687    1.0000 </r>
       <r>  -16.0645    1.0000 </r>
       <r>  -15.5376    1.0000 </r>
       <r>  -15.4838    1.0000 </r>
       <r>  -15.3406    1.0000 </r>
       <r>  -15.2122    1.0000 </r>
       <r>  -15.2115    1.0000 </r>
       <r>  -15.1030    1.0000 </r>
       <r>  -15.0565    1.0000 </r>
       <r>  -15.0555    1.0000 </r>
       <r>  -14.6462    1.0000 </r>
       <r>  -14.6460    1.0000 </r>
       <r>  -14.3909    1.0000 </r>
       <r>  -14.3901    1.0000 </r>
       <r>  -13.9560    1.0000 </r>
       <r>  -13.9171    1.0000 </r>
       <r>  -13.9170    1.0000 </r>
       <r>  -13.6095    1.0000 </r>
       <r>  -13.5945    1.0000 </r>
       <r>  -13.5945    1.0000 </r>
       <r>  -13.5543    1.0000 </r>
       <r>  -13.4658    1.0000 </r>
       <r>  -13.4027    1.0000 </r>
       <r>  -13.4002    1.0000 </r>
       <r>  -13.0491    1.0000 </r>
       <r>  -13.0480    1.0000 </r>
       <r>  -12.6593    1.0000 </r>
       <r>  -12.5495    1.0000 </r>
       <r>  -12.5494    1.0000 </r>
       <r>  -11.9260    1.0000 </r>
       <r>  -11.8634    1.0000 </r>
       <r>  -11.8538    1.0000 </r>
       <r>  -11.7461    1.0000 </r>
       <r>  -11.7457    1.0000 </r>
       <r>  -11.5253    1.0000 </r>
       <r>  -11.4543    1.0000 </r>
       <r>  -11.3397    1.0000 </r>
       <r>  -11.3381    1.0000 </r>
       <r>  -11.2921    1.0000 </r>
       <r>  -11.2912    1.0000 </r>
       <r>  -11.2819    1.0000 </r>
       <r>  -11.1092    1.0000 </r>
       <r>  -11.1083    1.0000 </r>
       <r>  -10.9795    1.0000 </r>
       <r>  -10.9771    1.0000 </r>
       <r>  -10.9462    1.0000 </r>
       <r>  -10.7420    1.0000 </r>
       <r>  -10.7409    1.0000 </r>
       <r>  -10.6905    1.0000 </r>
       <r>  -10.6308    1.0000 </r>
       <r>  -10.5133    1.0000 </r>
       <r>  -10.5124    1.0000 </r>
       <r>  -10.3865    1.0000 </r>
       <r>  -10.3752    1.0000 </r>
       <r>  -10.3745    1.0000 </r>
       <r>  -10.2787    1.0000 </r>
       <r>  -10.2782    1.0000 </r>
       <r>  -10.2401    1.0000 </r>
       <r>  -10.0578    1.0000 </r>
       <r>  -10.0570    1.0000 </r>
       <r>   -9.7177    1.0000 </r>
       <r>   -9.7173    1.0000 </r>
       <r>   -9.5551    1.0000 </r>
       <r>   -9.5539    1.0000 </r>
       <r>   -9.2512    1.0000 </r>
       <r>   -9.1901    1.0000 </r>
       <r>   -9.1766    1.0000 </r>
       <r>   -9.1764    1.0000 </r>
       <r>   -9.1739    1.0000 </r>
       <r>   -9.0932    1.0000 </r>
       <r>   -9.0104    1.0000 </r>
       <r>   -8.8520    1.0000 </r>
       <r>   -8.8517    1.0000 </r>
       <r>   -8.8461    1.0000 </r>
       <r>   -8.6990    1.0000 </r>
       <r>   -8.6984    1.0000 </r>
       <r>   -8.6840    1.0000 </r>
       <r>   -8.6411    1.0000 </r>
       <r>   -8.6409    1.0000 </r>
[...]
       <r>   -23.5222     0.0000    10.0000 </r>
       <r>   -23.4250     0.0000    10.0000 </r>
       <r>   -23.3278     0.0000    10.0000 </r>
       <r>   -23.2305    61.7023    16.0000 </r>
       <r>   -23.1333     0.0000    16.0000 </r>
       <r>   -23.0360     0.0000    16.0000 </r>
       <r>   -22.9388     0.0000    16.0000 </r>
       <r>   -22.8416     0.0000    16.0000 </r>
       <r>   -22.7443     0.0000    16.0000 </r>
       <r>   -22.6471    41.1349    20.0000 </r>
       <r>   -22.5498     0.0004    20.0000 </r>
       <r>   -22.4526   101.6171    29.8814 </r>
       <r>   -22.3554     0.0000    30.0000 </r>
       <r>   -22.2581     0.0000    30.0000 </r>
       <r>   -22.1609     0.0000    30.0000 </r>
       <r>   -22.0636     0.0000    30.0000 </r>
       <r>   -21.9664     0.0000    30.0000 </r>
       <r>   -21.8692     0.0000    30.0000 </r>
       <r>   -21.7719     0.0000    30.0000 </r>
       <r>   -21.6747    20.5431    31.9976 </r>
       <r>   -21.5774    41.1349    36.0000 </r>
       <r>   -21.4802    30.8740    39.0022 </r>
       <r>   -21.3829     0.0000    42.0000 </r>
       <r>   -21.2857     0.0000    42.0000 </r>
       <r>   -21.1885     0.0000    42.0000 </r>
       <r>   -21.0912     0.0000    42.0000 </r>
       <r>   -20.9940     0.0000    42.0000 </r>
       <r>   -20.8967     0.0000    42.0000 </r>
       <r>   -20.7995     0.0000    42.0000 </r>
       <r>   -20.7023     0.0000    42.0000 </r>
       <r>   -20.6050     0.0000    42.0000 </r>
       <r>   -20.5078     0.0000    42.0000 </r>
       <r>   -20.4105    61.5590    47.9861 </r>
       <r>   -20.3133     0.0000    48.0000 </r>
       <r>   -20.2161     0.0000    48.0000 </r>
       <r>   -20.1188     0.0000    48.0000 </r>
       <r>   -20.0216     0.0000    48.0000 </r>
       <r>   -19.9243     0.0000    48.0000 </r>
       <r>   -19.8271     0.0000    48.0000 </r>
       <r>   -19.7298     0.0000    48.0000 </r>
       <r>   -19.6326     0.0000    48.0000 </r>
       <r>   -19.5354     0.0003    48.0000 </r>
       <r>   -19.4381    41.3688    52.0228 </r>
       <r>   -19.3409    16.0876    53.9985 </r>
       <r>   -19.2436     0.0000    54.0000 </r>
       <r>   -19.1464     0.0000    54.0000 </r>
       <r>   -19.0492     0.0000    54.0000 </r>
       <r>   -18.9519     0.0000    54.0000 </r>
       <r>   -18.8547    27.9277    56.7157 </r>
       <r>   -18.7574    29.6175    59.7469 </r>
       <r>   -18.6602    35.8665    64.0892 </r>
       <r>   -18.5630    68.9404    71.6709 </r>
       <r>   -18.4657     0.0000    72.0000 </r>
       <r>   -18.3685     0.0000    72.0000 </r>
       <r>   -18.2712     0.0000    72.0000 </r>
       <r>   -18.1740     0.0000    72.0000 </r>
       <r>   -18.0767     0.0000    72.0000 </r>
       <r>   -17.9795     0.0000    72.0000 </r>
       <r>   -17.8823     0.0000    72.0000 </r>
       <r>   -17.7850     0.0000    72.0000 </r>
       <r>   -17.6878     0.0000    72.0000 </r>
       <r>   -17.5905     0.0000    72.0000 </r>
       <r>   -17.4933    32.3910    75.1497 </r>
       <r>   -17.3961    47.3136    80.6009 </r>
       <r>   -17.2988    11.6532    81.9999 </r>
       <r>   -17.2016     9.7728    82.9503 </r>
       <r>   -17.1043     2.9972    83.3581 </r>
       <r>   -17.0071     3.0710    83.7320 </r>
       <r>   -16.9099     1.7127    84.0000 </r>
       <r>   -16.8126     0.0000    84.0000 </r>
       <r>   -16.7154    22.8637    86.2233 </r>
       <r>   -16.6181     2.8787    86.5800 </r>
       <r>   -16.5209     2.6491    86.8910 </r>
       <r>   -16.4237     7.9192    87.7036 </r>
       <r>   -16.3264     1.6519    88.0608 </r>
       <r>   -16.2292     8.1141    89.0559 </r>
       <r>   -16.1319     3.1919    89.4437 </r>
       <r>   -16.0347    25.7070    92.0000 </r>
       <r>   -15.9374     0.0000    92.0000 </r>
       <r>   -15.8402     0.0000    92.0000 </r>
       <r>   -15.7430     0.0000    92.0000 </r>
       <r>   -15.6457     0.0000    92.0000 </r>
       <r>   -15.5485     0.2180    92.0212 </r>
       <r>   -15.4512    26.2136    94.8158 </r>
       <r>   -15.3540    11.5980    96.0613 </r>
       <r>   -15.2568     4.2300    98.4113 </r>
       <r>   -15.1595    29.4804   102.0002 </r>
       <r>   -15.0623    27.9955   104.7225 </r>
       <r>   -14.9650     0.0000   108.0000 </r>
       <r>   -14.8678     0.0000   108.0000 </r>
       <r>   -14.7706     0.0000   108.0000 </r>
       <r>   -14.6733     0.0020   108.0002 </r>
       <r>   -14.5761    41.1329   112.0000 </r>
       <r>   -14.4788     0.0000   112.0000 </r>
       <r>   -14.3816    37.3745   115.6343 </r>
       <r>   -14.2843     0.0000   116.0000 </r>
       <r>   -14.1871     0.0000   116.0000 </r>
       <r>   -14.0899     0.0000   116.0000 </r>
       <r>   -13.9926     0.0000   116.0000 </r>
       <r>   -13.8954    61.6726   121.9971 </r>
       <r>   -13.7981     0.0000   122.0000 </r>
       <r>   -13.7009     0.0000   122.0000 </r>
       <r>   -13.6037    20.4197   123.9856 </r>
       <r>   -13.5064    20.5674   130.0000 </r>
       <r>   -13.4092    32.0627   133.1178 </r>
       <r>   -13.3119     0.0000   136.0000 </r>
       <r>   -13.2147     0.0000   136.0000 </r>
       <r>   -13.1175     0.0000   136.0000 </r>
       <r>   -13.0202    40.9842   139.9854 </r>
       <r>   -12.9230     0.0000   140.0000 </r>
       <r>   -12.8257     0.0000   140.0000 </r>
       <r>   -12.7285     0.0000   140.0000 </r>
       <r>   -12.6312    20.5668   141.9999 </r>
       <r>   -12.5340    39.9720   145.8869 </r>
       <r>   -12.4368     0.0000   146.0000 </r>
       <r>   -12.3395     0.0000   146.0000 </r>
       <r>   -12.2423     0.0000   146.0000 </r>
       <r>   -12.1450     0.0000   146.0000 </r>
       <r>   -12.0478     1.2576   146.1223 </r>
       <r>   -11.9506     6.9561   147.6767 </r>
       <r>   -11.8533    23.9344   150.1274 </r>
       <r>   -11.7561    14.5125   151.7113 </r>
       <r>   -11.6588    22.6687   154.8380 </r>
       <r>   -11.5616    13.2589   156.2560 </r>
       <r>   -11.4644    21.6518   158.9726 </r>
       <r>   -11.3671    20.8037   163.0565 </r>
       <r>   -11.2699    35.0465   166.8415 </r>
       <r>   -11.1726    31.4690   170.7606 </r>
       <r>   -11.0754    20.8972   173.0988 </r>
       <r>   -10.9782    26.9605   176.6217 </r>
       <r>   -10.8809    19.1306   179.8603 </r>
       <r>   -10.7837     0.2293   180.0223 </r>
       <r>   -10.6864    53.6051   185.8474 </r>
       <r>   -10.5892    20.5673   188.0000 </r>
       <r>   -10.4919    31.4683   191.0600 </r>
       <r>   -10.3947     3.3462   192.3254 </r>
       <r>   -10.2975    47.6750   198.6387 </r>
       <r>   -10.2002    44.1887   204.0000 </r>
       <r>   -10.1030     0.4604   204.0448 </r>
       <r>   -10.0057    33.2338   208.0000 </r>
       <r>    -9.9085     0.0000   208.0000 </r>
       <r>    -9.8113     0.0000   208.0000 </r>
       <r>    -9.7140    28.3680   210.7585 </r>
       <r>    -9.6168     0.0000   212.0000 </r>
       <r>    -9.5195    41.1349   216.0000 </r>
       <r>    -9.4223     0.0000   216.0000 </r>
       <r>    -9.3251     0.0000   216.0000 </r>
       <r>    -9.2278    20.3916   217.9829 </r>
       <r>    -9.1306    82.2886   226.0018 </r>
       <r>    -9.0333    20.6344   228.0083 </r>
       <r>    -8.9361    18.4403   230.0000 </r>
       <r>    -8.8388    56.3412   235.4787 </r>
       <r>    -8.7416     0.0000   236.0000 </r>
       <r>    -8.6444    69.0144   242.7110 </r>
       <r>    -8.5471    20.5674   248.0000 </r>
       <r>    -8.4499    87.8712   256.5447 </r>
       <r>    -8.3526    54.9714   263.3455 </r>
       <r>    -8.2554    51.4870   269.6074 </r>
       <r>    -8.1582    82.1395   277.9873 </r>
       <r>    -8.0609     3.7516   280.0000 </r>
       <r>    -7.9637     0.0000   280.0000 </r>
       <r>    -7.8664     0.0000   280.0000 </r>
       <r>    -7.7692     0.0000   280.0000 </r>
       <r>    -7.6720     0.0000   280.0000 </r>
       <r>    -7.5747     0.4830   280.0470 </r>
       <r>    -7.4775    52.7586   286.0000 </r>
       <r>    -7.3802     0.0000   286.0000 </r>
       <r>    -7.2830     0.0000   286.0000 </r>
       <r>    -7.1857     0.0000   286.0000 </r>
       <r>    -7.0885     0.0000   286.0000 </r>
       <r>    -6.9913     0.0547   286.0053 </r>
       <r>    -6.8940    61.6477   292.0000 </r>
       <r>    -6.7968     0.0000   292.0000 </r>
       <r>    -6.6995     0.0002   292.0000 </r>
       <r>    -6.6023    63.1033   298.1362 </r>
       <r>    -6.5051    33.2134   302.6329 </r>
       <r>    -6.4078    61.6788   309.9993 </r>
       <r>    -6.3106    20.5636   311.9996 </r>
       <r>    -6.2133    41.1101   315.9976 </r>
       <r>    -6.1161    66.8998   322.5054 </r>
       <r>    -6.0189     0.0028   326.0003 </r>
       <r>    -5.9216    41.1321   330.0000 </r>
       <r>    -5.8244     0.0000   330.0000 </r>
       <r>    -5.7271     0.0000   330.0000 </r>
       <r>    -5.6299     0.0000   330.0000 </r>
       <r>    -5.5327     0.0000   330.0000 </r>
       <r>    -5.4354     0.0000   330.0000 </r>
       <r>    -5.3382     0.0000   330.0000 </r>
       <r>    -5.2409     0.0000   330.0000 </r>
       <r>    -5.1437     0.0000   330.0000 </r>
       <r>    -5.0464     0.0000   330.0000 </r>
       <r>    -4.9492     0.0000   330.0000 </r>
       <r>    -4.8520     0.0000   330.0000 </r>
       <r>    -4.7547     0.0000   330.0000 </r>
       <r>    -4.6575     0.0000   330.0000 </r>
       <r>    -4.5602     0.0000   330.0000 </r>
       <r>    -4.4630     0.0000   330.0000 </r>
       <r>    -4.3658     0.0000   330.0000 </r>
       <r>    -4.2685     0.0000   330.0000 </r>
       <r>    -4.1713     0.0000   330.0000 </r>
       <r>    -4.0740     0.0000   330.0000 </r>
       <r>    -3.9768     0.0000   330.0000 </r>
       <r>    -3.8796     0.0000   330.0000 </r>
       <r>    -3.7823     0.0000   330.0000 </r>
       <r>    -3.6851     0.0000   330.0000 </r>
       <r>    -3.5878     0.0000   330.0000 </r>
       <r>    -3.4906     0.0000   330.0000 </r>
       <r>    -3.3933     0.0000   330.0000 </r>
       <r>    -3.2961     0.0000   330.0000 </r>
       <r>    -3.1989     0.0001   330.0000 </r>
       <r>    -3.1016    61.7022   336.0000 </r>
       <r>    -3.0044     0.9910   336.0964 </r>
       <r>    -2.9071     0.0000   340.0000 </r>
       <r>    -2.8099    41.1325   343.9998 </r>
       <r>    -2.7127     0.0000   344.0000 </r>
       <r>    -2.6154     0.0000   344.0000 </r>
       <r>    -2.5182     0.0000   344.0000 </r>
       <r>    -2.4209    61.7023   350.0000 </r>
       <r>    -2.3237     0.0000   350.0000 </r>
       <r>    -2.2265     0.0000   350.0000 </r>
       <r>    -2.1292     0.0000   350.0000 </r>
       <r>    -2.0320     0.0000   350.0000 </r>
       <r>    -1.9347     0.0000   350.0000 </r>
       <r>    -1.8375    20.5674   352.0000 </r>
       <r>    -1.7402    16.6197   353.6161 </r>
       <r>    -1.6430     0.0000   354.0000 </r>
       <r>    -1.5458     0.0000   354.0000 </r>
       <r>    -1.4485    53.0753   359.1611 </r>
       <r>    -1.3513     0.0000   360.0000 </r>
       <r>    -1.2540    61.7023   366.0000 </r>
       <r>    -1.1568     0.0000   366.0000 </r>
       <r>    -1.0596     0.0000   366.0000 </r>
       <r>    -0.9623     0.0000   366.0000 </r>
       <r>    -0.8651     0.0000   366.0000 </r>
       <r>    -0.7678     0.0000   366.0000 </r>
       <r>    -0.6706     0.0093   366.0009 </r>
       <r>    -0.5734    45.7606   370.4507 </r>
       <r>    -0.4761     9.2752   372.1025 </r>
       <r>    -0.3789    43.5539   377.3690 </r>
       <r>    -0.2816    34.8551   381.0898 </r>
       <r>    -0.1844    23.1579   384.2520 </r>
       <r>    -0.0872    26.4777   390.2094 </r>
       <r>     0.0101    15.2073   392.4124 </r>
       <r>     0.1073    26.8211   395.5422 </r>
       <r>     0.2046    50.5974   400.9539 </r>
       <r>     0.3018    76.6018   409.4488 </r>
       <r>     0.3991    33.4868   413.4239 </r>
       <r>     0.4963    46.7414   418.2787 </r>
       <r>     0.5935    33.9124   422.8314 </r>
       <r>     0.6908    75.2651   431.0548 </r>
       <r>     0.7880    70.3988   438.8821 </r>
       <r>     0.8853    66.4699   446.6974 </r>
       <r>     0.9825     2.7395   448.0000 </r>
       <r>     1.0797     0.0000   448.0000 </r>
       <r>     1.1770     0.0000   448.0000 </r>
       <r>     1.2742     0.0000   448.0000 </r>
       <r>     1.3715     0.0000   448.0000 </r>
       <r>     1.4687     0.0000   448.0000 </r>
       <r>     1.5659     0.0000   448.0000 </r>
       <r>     1.6632     0.0000   448.0000 </r>
       <r>     1.7604     0.0000   448.0000 </r>
       <r>     1.8577     0.0000   448.0000 </r>
       <r>     1.9549     0.0000   448.0000 </r>
       <r>     2.0522     0.0000   448.0000 </r>
       <r>     2.1494     0.0000   448.0000 </r>
       <r>     2.2466     0.0000   448.0000 </r>
      </set>
     </set>
    </array>
   </total>
  </dos>
 </calculation>
 <structure name="finalpos" >
  <crystal>
   <varray name="basis" >
    <v>      29.26615549       0.00000000       0.00000000 </v>
    <v>     -14.63307775      25.34523413       0.00000000 </v>
    <v>       0.00000000       0.00000000      20.00000000 </v>
   </varray>
   <i name="volume">  14835.15125930 </i>
   <varray name="rec_basis" >
    <v>       0.03416916       0.01972757       0.00000000 </v>
    <v>       0.00000000       0.03945515       0.00000000 </v>
    <v>       0.00000000       0.00000000       0.05000000 </v>
   </varray>
  </crystal>
  <varray name="positions" >
   <v>       0.02944335       0.51472168       0.56372255 </v>
   <v>       0.38754042       0.69377021       0.50288360 </v>
   <v>       0.30622979       0.61245958       0.50288360 </v>
   <v>       0.30622979       0.69377021       0.50288360 </v>
   <v>       0.61245520       0.30622760       0.50116449 </v>
   <v>       0.69377240       0.38754480       0.50116449 </v>
   <v>       0.69377240       0.30622760       0.50116449 </v>
   <v>       0.48527832       0.51472168       0.56372255 </v>
   <v>       0.53565324       0.46434676       0.67856273 </v>
   <v>       0.48527832       0.97055665       0.56372255 </v>
   <v>       0.53565324       0.07130648       0.67856273 </v>
   <v>       0.92869352       0.46434676       0.67856273 </v>
   <v>       0.51432037       0.48567963       0.44408121 </v>
   <v>       0.51432037       0.02864074       0.44408121 </v>
   <v>       0.97135926       0.48567963       0.44408121 </v>
   <v>       0.02408879       0.51204439       0.44456929 </v>
   <v>       0.35924495       0.71848991       0.50289022 </v>
   <v>       0.35924495       0.64075505       0.50289022 </v>
   <v>       0.28151009       0.64075505       0.50289022 </v>
   <v>       0.38844655       0.61155345       0.50279638 </v>
   <v>       0.44385200       0.63894187       0.50278725 </v>
   <v>       0.47130345       0.61148068       0.50298065 </v>
   <v>       0.44384117       0.55615883       0.50330572 </v>
   <v>       0.38851932       0.52869655       0.50298065 </v>
   <v>       0.36105813       0.55614800       0.50278725 </v>
   <v>       0.38844655       0.77689310       0.50279638 </v>
   <v>       0.44385200       0.80491013       0.50278725 </v>
   <v>       0.47130345       0.85982277       0.50298065 </v>
   <v>       0.44384117       0.88768235       0.50330572 </v>
   <v>       0.38851932       0.85982277       0.50298065 </v>
   <v>       0.36105813       0.80491013       0.50278725 </v>
   <v>       0.22310690       0.61155345       0.50279638 </v>
   <v>       0.19508987       0.63894187       0.50278725 </v>
   <v>       0.14017723       0.61148068       0.50298065 </v>
   <v>       0.11231765       0.55615883       0.50330572 </v>
   <v>       0.14017723       0.52869655       0.50298065 </v>
   <v>       0.19508987       0.55614800       0.50278725 </v>
   <v>       0.64074626       0.28149251       0.50129111 </v>
   <v>       0.64074626       0.35925374       0.50129111 </v>
   <v>       0.71850749       0.35925374       0.50129111 </v>
   <v>       0.61151637       0.38848363       0.50199319 </v>
   <v>       0.55611337       0.36113202       0.50254150 </v>
   <v>       0.52865092       0.38857659       0.50338909 </v>
   <v>       0.55610404       0.44389596       0.50359906 </v>
   <v>       0.61142341       0.47134908       0.50338909 </v>
   <v>       0.63886798       0.44388663       0.50254150 </v>
   <v>       0.61151637       0.22303274       0.50199319 </v>
   <v>       0.55611337       0.19498135       0.50254150 </v>
   <v>       0.52865092       0.14007433       0.50338909 </v>
   <v>       0.55610404       0.11220807       0.50359906 </v>
   <v>       0.61142341       0.14007433       0.50338909 </v>
   <v>       0.63886798       0.19498135       0.50254150 </v>
   <v>       0.77696726       0.38848363       0.50199319 </v>
   <v>       0.80501865       0.36113202       0.50254150 </v>
   <v>       0.85992567       0.38857659       0.50338909 </v>
   <v>       0.88779193       0.44389596       0.50359906 </v>
   <v>       0.85992567       0.47134908       0.50338909 </v>
   <v>       0.80501865       0.44388663       0.50254150 </v>
   <v>       0.52674672       0.47325328       0.50337652 </v>
   <v>       0.47319783       0.52680217       0.50416018 </v>
   <v>       0.51184292       0.48815708       0.56318614 </v>
   <v>       0.52482653       0.47517347       0.62703412 </v>
   <v>       0.52674672       0.05349344       0.50337652 </v>
   <v>       0.47319783       0.94639566       0.50416018 </v>
   <v>       0.51184292       0.02368585       0.56318614 </v>
   <v>       0.52482653       0.04965306       0.62703412 </v>
   <v>       0.94650656       0.47325328       0.50337652 </v>
   <v>       0.05360434       0.52680217       0.50416018 </v>
   <v>       0.97631415       0.48815708       0.56318614 </v>
   <v>       0.95034694       0.47517347       0.62703412 </v>
   <v>       0.48795561       0.51204439       0.44456929 </v>
   <v>       0.48795561       0.97591121       0.44456929 </v>
   <v>       0.04390421       0.52195210       0.39600862 </v>
   <v>       0.51435266       0.88137648       0.50342155 </v>
   <v>       0.46482581       0.78291391       0.50286706 </v>
   <v>       0.36702383       0.88137648       0.50342155 </v>
   <v>       0.31808810       0.78291391       0.50286706 </v>
   <v>       0.21708609       0.68191190       0.50286706 </v>
   <v>       0.11862352       0.63297617       0.50342155 </v>
   <v>       0.21708609       0.53517419       0.50286706 </v>
   <v>       0.11862352       0.48564734       0.50342155 </v>
   <v>       0.31808810       0.53517419       0.50286706 </v>
   <v>       0.36702383       0.48564734       0.50342155 </v>
   <v>       0.51435266       0.63297617       0.50342155 </v>
   <v>       0.46482581       0.68191190       0.50286706 </v>
   <v>       0.48561290       0.11856216       0.50372962 </v>
   <v>       0.53509849       0.21693455       0.50232310 </v>
   <v>       0.63294926       0.11856216       0.50372962 </v>
   <v>       0.68183606       0.21693455       0.50232310 </v>
   <v>       0.78306545       0.31816394       0.50232310 </v>
   <v>       0.88143784       0.36705074       0.50372962 </v>
   <v>       0.78306545       0.46490151       0.50232310 </v>
   <v>       0.88143784       0.51438710       0.50372962 </v>
   <v>       0.68183606       0.46490151       0.50232310 </v>
   <v>       0.63294926       0.51438710       0.50372962 </v>
   <v>       0.48561290       0.36705074       0.50372962 </v>
   <v>       0.53509849       0.31816394       0.50232310 </v>
   <v>       0.47804790       0.52195210       0.39600862 </v>
   <v>       0.47804790       0.95609579       0.39600862 </v>
  </varray>
 </structure>
</modeling>
