<?xml version="1.0" encoding="ISO-8859-1"?>
<modeling>
 <generator>
  <i name="program" type="string">vasp </i>
  <i name="version" type="string">5.4.4.18Apr17-6-g9f103f2a35  </i>
  <i name="subversion" type="string">(build Jun 07 2020 16:50:00) complex            parallel </i>
  <i name="platform" type="string">LinuxIFC </i>
  <i name="date" type="string">2023 02 16 </i>
  <i name="time" type="string">07:27:32 </i>
 </generator>
 <incar>
  <i type="string" name="SYSTEM">Simulation for cell shape cell volume r</i>
  <i type="int" name="ISTART">     1</i>
  <i type="string" name="PREC">high</i>
  <i type="string" name="ALGO">48</i>
  <i type="int" name="ICHARG">    11</i>
  <i type="int" name="NELM">   200</i>
  <i type="int" name="IBRION">    -1</i>
  <i name="EDIFF">      0.00001000</i>
  <i name="EDIFFG">     -0.01000000</i>
  <i type="int" name="NSW">     0</i>
  <i type="int" name="ISIF">     2</i>
  <i name="ENCUT">    500.00000000</i>
  <i name="POTIM">      0.30000000</i>
  <i type="string" name="LREAL">A</i>
  <i type="int" name="ISMEAR">     0</i>
  <i name="SIGMA">      0.01000000</i>
  <i type="int" name="NWRITE">     0</i>
  <i type="logical" name="LWAVE"> F  </i>
  <i type="logical" name="LCHARG"> F  </i>
  <v type="int" name="KPOINT_BSE">    -1     0     0     0</v>
  <i type="int" name="NELM">   200</i>
  <i type="string" name="GGA">PE</i>
 </incar>
 <structure name="primitive_cell" >
  <crystal>
   <varray name="basis" >
    <v>      21.61294659       0.03972979       0.00000000 </v>
    <v>     -10.77220190      18.65892830       0.00000000 </v>
    <v>       0.00000000       0.00000000      20.00000000 </v>
   </varray>
   <i name="volume">   8074.04796063 </i>
   <varray name="rec_basis" >
    <v>       0.04621951       0.02668352       0.00000000 </v>
    <v>      -0.00009841       0.05353683       0.00000000 </v>
    <v>       0.00000000       0.00000000       0.05000000 </v>
   </varray>
  </crystal>
  <varray name="positions" >
   <v>       0.48742236      -0.16338874      -0.40388525 </v>
   <v>       0.42906356      -0.18602471      -0.43098671 </v>
   <v>       0.40921716      -0.14467410      -0.46890019 </v>
   <v>       0.37236521      -0.26366226      -0.42901477 </v>
   <v>       0.45242080      -0.29464351      -0.42675856 </v>
   <v>       0.39512213      -0.31427948      -0.42875829 </v>
   <v>      -0.49517151      -0.02748614      -0.44700864 </v>
   <v>       0.45144835      -0.07276457      -0.48620170 </v>
   <v>       0.36494350      -0.17163342      -0.49784011 </v>
   <v>      -0.37839975       0.01644168      -0.37855137 </v>
   <v>       0.29943316      -0.28664376      -0.42866354 </v>
   <v>       0.27976223      -0.24881086      -0.42669322 </v>
   <v>      -0.45713128       0.03996757      -0.46630021 </v>
   <v>      -0.43310947       0.04235591      -0.33337556 </v>
   <v>      -0.38759107       0.06117046      -0.36774523 </v>
   <v>       0.34523365      -0.38742163      -0.42976082 </v>
   <v>       0.43628424      -0.04797881       0.45381978 </v>
   <v>       0.44612891      -0.37866027      -0.49694802 </v>
   <v>      -0.40136448       0.08843377      -0.42860581 </v>
   <v>       0.24906968      -0.35995649      -0.42944019 </v>
   <v>       0.38056642      -0.09657622       0.41615889 </v>
   <v>       0.27210733      -0.41011510      -0.42942064 </v>
   <v>      -0.47236344       0.06479723       0.47380825 </v>
   <v>       0.47435160       0.01947547       0.43450589 </v>
   <v>      -0.33997340       0.10658211      -0.34622904 </v>
   <v>       0.42810417      -0.42363989      -0.46867964 </v>
   <v>       0.36585341      -0.44446631      -0.43246886 </v>
   <v>       0.17170704      -0.38034392      -0.43129047 </v>
   <v>       0.23449697      -0.46760135      -0.42804375 </v>
   <v>       0.36626782      -0.06950049       0.35546845 </v>
   <v>      -0.49367659      -0.39366005       0.41728455 </v>
   <v>       0.14959996      -0.34392238      -0.40426164 </v>
   <v>       0.32907351       0.49616337      -0.40719916 </v>
   <v>      -0.43010647       0.13679332       0.45669710 </v>
   <v>       0.45825371      -0.46557745      -0.48571728 </v>
   <v>      -0.38532865       0.16324320       0.48509704 </v>
   <v>       0.41137009      -0.05103319       0.32063599 </v>
   <v>       0.31830606      -0.11489015       0.33438495 </v>
   <v>       0.35739549      -0.02459725       0.36642532 </v>
   <v>      -0.44849153      -0.33018376       0.33638403 </v>
   <v>       0.49906568      -0.44965322       0.45488268 </v>
   <v>       0.15684987      -0.45946068      -0.49768951 </v>
   <v>       0.13014026      -0.44171612      -0.46874723 </v>
   <v>      -0.45088167      -0.37820197       0.35750577 </v>
   <v>       0.44993652       0.48069938      -0.44666246 </v>
   <v>      -0.39729582      -0.36868088       0.36967112 </v>
   <v>      -0.45049662       0.17896428       0.42083715 </v>
   <v>       0.49042801       0.15704041       0.39546135 </v>
   <v>      -0.47085790      -0.48726739       0.43601567 </v>
   <v>      -0.47607185      -0.42313339       0.32218546 </v>
   <v>      -0.30086595       0.24160950       0.41673220 </v>
   <v>       0.05828105      -0.47161487      -0.48554982 </v>
   <v>       0.47984916       0.44295088      -0.46563684 </v>
   <v>      -0.39347754       0.25654644       0.41880497 </v>
   <v>       0.45418200       0.41551910      -0.33313500 </v>
   <v>      -0.47907666       0.45904763       0.47510768 </v>
   <v>      -0.32053619       0.27944592       0.41863033 </v>
   <v>       0.08185511       0.48083692       0.41678870 </v>
   <v>       0.01310798      -0.46347477      -0.44615441 </v>
   <v>       0.37558086       0.36162893      -0.38105990 </v>
   <v>       0.03338492       0.48782747       0.45482917 </v>
   <v>       0.42903103       0.37085531      -0.36873602 </v>
   <v>       0.47212890       0.38659617      -0.42833463 </v>
   <v>      -0.03131949      -0.39006310      -0.37896824 </v>
   <v>      -0.41609370       0.30729579       0.41856023 </v>
   <v>      -0.47339272       0.28766661       0.41655931 </v>
   <v>       0.09963325       0.43525624       0.33579771 </v>
   <v>      -0.44880612       0.41711967       0.45828190 </v>
   <v>       0.05426876       0.43772276       0.35713318 </v>
   <v>      -0.27006219       0.35273722       0.41961898 </v>
   <v>      -0.05439187      -0.49353114      -0.46492870 </v>
   <v>      -0.05629732      -0.46955733      -0.33199919 </v>
   <v>      -0.17010531       0.33648855       0.39672892 </v>
   <v>      -0.34925652       0.49724199       0.39749556 </v>
   <v>       0.42632697       0.32259469      -0.34786200 </v>
   <v>      -0.07556088      -0.44375083      -0.36714357 </v>
   <v>       0.03438950       0.46287677       0.32189484 </v>
   <v>      -0.03411624       0.45767469       0.43614116 </v>
   <v>      -0.19265432       0.37319762       0.42234673 </v>
   <v>      -0.46730094       0.37191062       0.48629292 </v>
   <v>      -0.38644714       0.43774452       0.42238073 </v>
   <v>       0.01040578       0.38400684       0.36951426 </v>
   <v>      -0.07935240       0.46563610       0.47562800 </v>
   <v>      -0.36613232       0.38042734       0.41957231 </v>
   <v>      -0.10285888      -0.48620766      -0.42718428 </v>
   <v>      -0.29304488       0.40295726       0.41933863 </v>
   <v>      -0.12091003      -0.44112290      -0.34599409 </v>
   <v>      -0.15132265       0.43526192       0.45899803 </v>
   <v>      -0.17808988       0.45330446       0.48746721 </v>
   <v>      -0.25539046       0.46043042       0.41791322 </v>
  </varray>
 </structure>
 <varray name="primitive_index" >
  <v type="int" >        1 </v>
  <v type="int" >       49 </v>
  <v type="int" >       20 </v>
  <v type="int" >       48 </v>
  <v type="int" >       62 </v>
  <v type="int" >       29 </v>
  <v type="int" >       13 </v>
  <v type="int" >       53 </v>
  <v type="int" >       82 </v>
  <v type="int" >       69 </v>
  <v type="int" >       28 </v>
  <v type="int" >       61 </v>
  <v type="int" >       40 </v>
  <v type="int" >       68 </v>
  <v type="int" >       41 </v>
  <v type="int" >       25 </v>
  <v type="int" >       52 </v>
  <v type="int" >       86 </v>
  <v type="int" >        7 </v>
  <v type="int" >       27 </v>
  <v type="int" >       10 </v>
  <v type="int" >       26 </v>
  <v type="int" >       39 </v>
  <v type="int" >       19 </v>
  <v type="int" >       67 </v>
  <v type="int" >       22 </v>
  <v type="int" >       30 </v>
  <v type="int" >       31 </v>
  <v type="int" >       63 </v>
  <v type="int" >       54 </v>
  <v type="int" >       11 </v>
  <v type="int" >        3 </v>
  <v type="int" >        2 </v>
  <v type="int" >       14 </v>
  <v type="int" >       56 </v>
  <v type="int" >       70 </v>
  <v type="int" >       81 </v>
  <v type="int" >       79 </v>
  <v type="int" >       80 </v>
  <v type="int" >       83 </v>
  <v type="int" >       55 </v>
  <v type="int" >       90 </v>
  <v type="int" >       24 </v>
  <v type="int" >       57 </v>
  <v type="int" >       15 </v>
  <v type="int" >       84 </v>
  <v type="int" >       51 </v>
  <v type="int" >        4 </v>
  <v type="int" >       21 </v>
  <v type="int" >       85 </v>
  <v type="int" >       64 </v>
  <v type="int" >       59 </v>
  <v type="int" >       43 </v>
  <v type="int" >       50 </v>
  <v type="int" >       72 </v>
  <v type="int" >       42 </v>
  <v type="int" >       35 </v>
  <v type="int" >       12 </v>
  <v type="int" >       17 </v>
  <v type="int" >       73 </v>
  <v type="int" >       58 </v>
  <v type="int" >       44 </v>
  <v type="int" >        8 </v>
  <v type="int" >       77 </v>
  <v type="int" >       36 </v>
  <v type="int" >       65 </v>
  <v type="int" >       87 </v>
  <v type="int" >       16 </v>
  <v type="int" >       60 </v>
  <v type="int" >       34 </v>
  <v type="int" >       46 </v>
  <v type="int" >       76 </v>
  <v type="int" >        6 </v>
  <v type="int" >        5 </v>
  <v type="int" >       71 </v>
  <v type="int" >       47 </v>
  <v type="int" >       89 </v>
  <v type="int" >       23 </v>
  <v type="int" >       38 </v>
  <v type="int" >       74 </v>
  <v type="int" >       37 </v>
  <v type="int" >       88 </v>
  <v type="int" >       45 </v>
  <v type="int" >       32 </v>
  <v type="int" >        9 </v>
  <v type="int" >       33 </v>
  <v type="int" >       75 </v>
  <v type="int" >       18 </v>
  <v type="int" >       78 </v>
  <v type="int" >       66 </v>
 </varray>
 <kpoints>
  <generation param="listgenerated">
   <i name="divisions" type="int">      20 </i>
   <v>       0.00000000       0.00000000       0.00000000 </v>
   <v>       0.50000000       0.00000000       0.00000000 </v>
   <v>       0.33333333       0.33333333       0.00000000 </v>
   <v>       0.00000000       0.00000000       0.00000000 </v>
  </generation>
  <varray name="kpointlist" >
   <v>       0.00000000       0.00000000       0.00000000 </v>
   <v>       0.02631579       0.00000000       0.00000000 </v>
   <v>       0.05263158       0.00000000       0.00000000 </v>
   <v>       0.07894737       0.00000000       0.00000000 </v>
   <v>       0.10526316       0.00000000       0.00000000 </v>
   <v>       0.13157895       0.00000000       0.00000000 </v>
   <v>       0.15789474       0.00000000       0.00000000 </v>
   <v>       0.18421053       0.00000000       0.00000000 </v>
   <v>       0.21052632       0.00000000       0.00000000 </v>
   <v>       0.23684211       0.00000000       0.00000000 </v>
   <v>       0.26315789       0.00000000       0.00000000 </v>
   <v>       0.28947368       0.00000000       0.00000000 </v>
   <v>       0.31578947       0.00000000       0.00000000 </v>
   <v>       0.34210526       0.00000000       0.00000000 </v>
   <v>       0.36842105       0.00000000       0.00000000 </v>
   <v>       0.39473684       0.00000000       0.00000000 </v>
   <v>       0.42105263       0.00000000       0.00000000 </v>
   <v>       0.44736842       0.00000000       0.00000000 </v>
   <v>       0.47368421       0.00000000       0.00000000 </v>
   <v>       0.50000000       0.00000000       0.00000000 </v>
   <v>       0.50000000       0.00000000       0.00000000 </v>
   <v>       0.49122807       0.01754386       0.00000000 </v>
   <v>       0.48245614       0.03508772       0.00000000 </v>
   <v>       0.47368421       0.05263158       0.00000000 </v>
   <v>       0.46491228       0.07017544       0.00000000 </v>
   <v>       0.45614035       0.08771930       0.00000000 </v>
   <v>       0.44736842       0.10526316       0.00000000 </v>
   <v>       0.43859649       0.12280702       0.00000000 </v>
   <v>       0.42982456       0.14035088       0.00000000 </v>
   <v>       0.42105263       0.15789474       0.00000000 </v>
   <v>       0.41228070       0.17543860       0.00000000 </v>
   <v>       0.40350877       0.19298246       0.00000000 </v>
   <v>       0.39473684       0.21052632       0.00000000 </v>
   <v>       0.38596491       0.22807018       0.00000000 </v>
   <v>       0.37719298       0.24561404       0.00000000 </v>
   <v>       0.36842105       0.26315789       0.00000000 </v>
   <v>       0.35964912       0.28070175       0.00000000 </v>
   <v>       0.35087719       0.29824561       0.00000000 </v>
   <v>       0.34210526       0.31578947       0.00000000 </v>
   <v>       0.33333333       0.33333333       0.00000000 </v>
   <v>       0.33333333       0.33333333       0.00000000 </v>
   <v>       0.31578947       0.31578947       0.00000000 </v>
   <v>       0.29824561       0.29824561       0.00000000 </v>
   <v>       0.28070175       0.28070175       0.00000000 </v>
   <v>       0.26315789       0.26315789       0.00000000 </v>
   <v>       0.24561404       0.24561404       0.00000000 </v>
   <v>       0.22807018       0.22807018       0.00000000 </v>
   <v>       0.21052632       0.21052632       0.00000000 </v>
   <v>       0.19298246       0.19298246       0.00000000 </v>
   <v>       0.17543860       0.17543860       0.00000000 </v>
   <v>       0.15789474       0.15789474       0.00000000 </v>
   <v>       0.14035088       0.14035088       0.00000000 </v>
   <v>       0.12280702       0.12280702       0.00000000 </v>
   <v>       0.10526316       0.10526316       0.00000000 </v>
   <v>       0.08771930       0.08771930       0.00000000 </v>
   <v>       0.07017544       0.07017544       0.00000000 </v>
   <v>       0.05263158       0.05263158       0.00000000 </v>
   <v>       0.03508772       0.03508772       0.00000000 </v>
   <v>       0.01754386       0.01754386       0.00000000 </v>
   <v>       0.00000000       0.00000000       0.00000000 </v>
  </varray>
  <varray name="weights" >
   <v>       0.01666667 </v>
   <v>       0.01666667 </v>
   <v>       0.01666667 </v>
   <v>       0.01666667 </v>
   <v>       0.01666667 </v>
   <v>       0.01666667 </v>
   <v>       0.01666667 </v>
   <v>       0.01666667 </v>
   <v>       0.01666667 </v>
   <v>       0.01666667 </v>
   <v>       0.01666667 </v>
   <v>       0.01666667 </v>
   <v>       0.01666667 </v>
   <v>       0.01666667 </v>
   <v>       0.01666667 </v>
   <v>       0.01666667 </v>
   <v>       0.01666667 </v>
   <v>       0.01666667 </v>
   <v>       0.01666667 </v>
   <v>       0.01666667 </v>
   <v>       0.01666667 </v>
   <v>       0.01666667 </v>
   <v>       0.01666667 </v>
   <v>       0.01666667 </v>
   <v>       0.01666667 </v>
   <v>       0.01666667 </v>
   <v>       0.01666667 </v>
   <v>       0.01666667 </v>
   <v>       0.01666667 </v>
   <v>       0.01666667 </v>
   <v>       0.01666667 </v>
   <v>       0.01666667 </v>
   <v>       0.01666667 </v>
   <v>       0.01666667 </v>
   <v>       0.01666667 </v>
   <v>       0.01666667 </v>
   <v>       0.01666667 </v>
   <v>       0.01666667 </v>
   <v>       0.01666667 </v>
   <v>       0.01666667 </v>
   <v>       0.01666667 </v>
   <v>       0.01666667 </v>
   <v>       0.01666667 </v>
   <v>       0.01666667 </v>
   <v>       0.01666667 </v>
   <v>       0.01666667 </v>
   <v>       0.01666667 </v>
   <v>       0.01666667 </v>
   <v>       0.01666667 </v>
   <v>       0.01666667 </v>
   <v>       0.01666667 </v>
   <v>       0.01666667 </v>
   <v>       0.01666667 </v>
   <v>       0.01666667 </v>
   <v>       0.01666667 </v>
   <v>       0.01666667 </v>
   <v>       0.01666667 </v>
   <v>       0.01666667 </v>
   <v>       0.01666667 </v>
   <v>       0.01666667 </v>
  </varray>
 </kpoints>
 <parameters>
  <separator name="general" >
   <i type="string" name="SYSTEM">Simulation for cell shape cell volume r</i>
   <i type="logical" name="LCOMPAT"> F  </i>
  </separator>
  <separator name="electronic" >
   <i type="string" name="PREC">high</i>
   <i name="ENMAX">    500.00000000</i>
   <i name="ENAUG">    644.87300000</i>
   <i name="EDIFF">      0.00001000</i>
   <i type="int" name="IALGO">    38</i>
   <i type="int" name="IWAVPR">    10</i>
   <i type="int" name="NBANDS">   208</i>
   <i name="NELECT">    306.00000000</i>
   <i type="int" name="TURBO">     0</i>
   <i type="int" name="IRESTART">     0</i>
   <i type="int" name="NREBOOT">     0</i>
   <i type="int" name="NMIN">     0</i>
   <i name="EREF">      0.00000000</i>
   <separator name="electronic smearing" >
    <i type="int" name="ISMEAR">     0</i>
    <i name="SIGMA">      0.01000000</i>
    <i name="KSPACING">      0.50000000</i>
    <i type="logical" name="KGAMMA"> T  </i>
   </separator>
   <separator name="electronic projectors" >
    <i type="logical" name="LREAL"> T  </i>
    <v name="ROPT">     -0.00040000     -0.00040000     -0.00040000     -0.00040000</v>
    <i type="int" name="LMAXPAW">  -100</i>
    <i type="int" name="LMAXMIX">     2</i>
    <i type="logical" name="NLSPLINE"> F  </i>
   </separator>
   <separator name="electronic startup" >
    <i type="int" name="ISTART">     1</i>
    <i type="int" name="ICHARG">    11</i>
    <i type="int" name="INIWAV">     1</i>
   </separator>
   <separator name="electronic spin" >
    <i type="int" name="ISPIN">     1</i>
    <i type="logical" name="LNONCOLLINEAR"> F  </i>
    <v name="MAGMOM">      1.00000000      1.00000000      1.00000000      1.00000000      1.00000000      1.00000000      1.00000000      1.00000000      1.00000000      1.00000000      1.00000000      1.00000000      1.00000000      1.00000000      1.00000000      1.00000000      1.00000000      1.00000000      1.00000000      1.00000000
      1.00000000      1.00000000      1.00000000      1.00000000      1.00000000      1.00000000      1.00000000      1.00000000      1.00000000      1.00000000      1.00000000      1.00000000      1.00000000      1.00000000      1.00000000      1.00000000      1.00000000      1.00000000      1.00000000      1.00000000
      1.00000000      1.00000000      1.00000000      1.00000000      1.00000000      1.00000000      1.00000000      1.00000000      1.00000000      1.00000000      1.00000000      1.00000000      1.00000000      1.00000000      1.00000000      1.00000000      1.00000000      1.00000000      1.00000000      1.00000000
      1.00000000      1.00000000      1.00000000      1.00000000      1.00000000      1.00000000      1.00000000      1.00000000      1.00000000      1.00000000      1.00000000      1.00000000      1.00000000      1.00000000      1.00000000      1.00000000      1.00000000      1.00000000      1.00000000      1.00000000
      1.00000000      1.00000000      1.00000000      1.00000000      1.00000000      1.00000000      1.00000000      1.00000000      1.00000000      1.00000000</v>
    <i name="NUPDOWN">     -1.00000000</i>
    <i type="logical" name="LSORBIT"> F  </i>
    <v name="SAXIS">      0.00000000      0.00000000      1.00000000</v>
    <i type="logical" name="LSPIRAL"> F  </i>
    <v name="QSPIRAL">      0.00000000      0.00000000      0.00000000</v>
    <i type="logical" name="LZEROZ"> F  </i>
   </separator>
   <separator name="electronic exchange-correlation" >
    <i type="logical" name="LASPH"> F  </i>
    <i type="logical" name="LMETAGGA"> F  </i>
   </separator>
   <separator name="electronic convergence" >
    <i type="int" name="NELM">   200</i>
    <i type="int" name="NELMDL">     0</i>
    <i type="int" name="NELMIN">     2</i>
    <i name="ENINI">    500.00000000</i>
    <separator name="electronic convergence detail" >
     <i type="logical" name="LDIAG"> T  </i>
     <i type="logical" name="LSUBROT"> F  </i>
     <i name="WEIMIN">      0.00000000</i>
     <i name="EBREAK">      0.00000001</i>
     <i name="DEPER">      0.30000000</i>
     <i type="int" name="NRMM">     4</i>
     <i name="TIME">      0.40000000</i>
    </separator>
   </separator>
   <separator name="electronic mixer" >
    <i name="AMIX">      0.40000000</i>
    <i name="BMIX">      1.00000000</i>
    <i name="AMIN">      0.10000000</i>
    <i name="AMIX_MAG">      1.60000000</i>
    <i name="BMIX_MAG">      1.00000000</i>
    <separator name="electronic mixer details" >
     <i type="int" name="IMIX">     4</i>
     <i type="logical" name="MIXFIRST"> F  </i>
     <i type="int" name="MAXMIX">   -45</i>
     <i name="WC">    100.00000000</i>
     <i type="int" name="INIMIX">     1</i>
     <i type="int" name="MIXPRE">     1</i>
     <i type="int" name="MREMOVE">     5</i>
    </separator>
   </separator>
   <separator name="electronic dipolcorrection" >
    <i type="logical" name="LDIPOL"> F  </i>
    <i type="logical" name="LMONO"> F  </i>
    <i type="int" name="IDIPOL">     0</i>
    <i name="EPSILON">      1.00000000</i>
    <v name="DIPOL">   -100.00000000   -100.00000000   -100.00000000</v>
    <i name="EFIELD">      0.00000000</i>
   </separator>
  </separator>
  <separator name="grids" >
   <i type="int" name="NGX">   160</i>
   <i type="int" name="NGY">   160</i>
   <i type="int" name="NGZ">   150</i>
   <i type="int" name="NGXF">   240</i>
   <i type="int" name="NGYF">   240</i>
   <i type="int" name="NGZF">   224</i>
   <i type="logical" name="ADDGRID"> F  </i>
  </separator>
  <separator name="ionic" >
   <i type="int" name="NSW">     0</i>
   <i type="int" name="IBRION">    -1</i>
   <i type="int" name="MDALGO">     0</i>
   <i type="int" name="ISIF">     2</i>
   <i name="PSTRESS">      0.00000000</i>
   <i name="EDIFFG">     -0.01000000</i>
   <i type="int" name="NFREE">     0</i>
   <i name="POTIM">      0.30000000</i>
   <i name="SMASS">     -3.00000000</i>
   <i name="SCALEE">      1.00000000</i>
  </separator>
  <separator name="ionic md" >
   <i name="TEBEG">      0.00010000</i>
   <i name="TEEND">      0.00010000</i>
   <i type="int" name="NBLOCK">     1</i>
   <i type="int" name="KBLOCK">     1</i>
   <i type="int" name="NPACO">   256</i>
   <i name="APACO">     16.00000000</i>
  </separator>
  <separator name="symmetry" >
   <i type="int" name="ISYM">     2</i>
   <i name="SYMPREC">      0.00001000</i>
  </separator>
  <separator name="dos" >
   <i type="int" name="LORBIT">     0</i>
   <v name="RWIGS">     -1.00000000     -1.00000000     -1.00000000     -1.00000000</v>
   <i type="int" name="NEDOS">   301</i>
   <i name="EMIN">     10.00000000</i>
   <i name="EMAX">    -10.00000000</i>
   <i name="EFERMI">      0.00000000</i>
  </separator>
  <separator name="writing" >
   <i type="int" name="NWRITE">     0</i>
   <i type="logical" name="LWAVE"> F  </i>
   <i type="logical" name="LDOWNSAMPLE"> F  </i>
   <i type="logical" name="LCHARG"> F  </i>
   <i type="logical" name="LPARD"> F  </i>
   <i type="logical" name="LVTOT"> F  </i>
   <i type="logical" name="LVHAR"> F  </i>
   <i type="logical" name="LELF"> F  </i>
   <i type="logical" name="LOPTICS"> F  </i>
   <v name="STM">      0.00000000      0.00000000      0.00000000      0.00000000      0.00000000      0.00000000      0.00000000</v>
  </separator>
  <separator name="performance" >
   <i type="int" name="NPAR">    16</i>
   <i type="int" name="NSIM">     4</i>
   <i type="int" name="NBLK">    -1</i>
   <i type="logical" name="LPLANE"> T  </i>
   <i type="logical" name="LSCALAPACK"> T  </i>
   <i type="logical" name="LSCAAWARE"> F  </i>
   <i type="logical" name="LSCALU"> F  </i>
   <i type="logical" name="LASYNC"> F  </i>
   <i type="logical" name="LORBITALREAL"> F  </i>
  </separator>
  <separator name="miscellaneous" >
   <i type="int" name="IDIOT">     3</i>
   <i type="int" name="ISPECIAL">     0</i>
   <i type="logical" name="LMUSIC"> F  </i>
   <v name="POMASS">     16.00000000     14.00100000     12.01100000      1.00000000</v>
   <v name="DARWINR">      0.00000000      0.00000000      0.00000000      0.00000000</v>
   <v name="DARWINV">      1.00000000      1.00000000      1.00000000      1.00000000</v>
   <i type="logical" name="LCORR"> T  </i>
  </separator>
  <i type="logical" name="GGA_COMPAT"> T  </i>
  <i type="logical" name="LBERRY"> F  </i>
  <i type="int" name="ICORELEVEL">     0</i>
  <i type="logical" name="LDAU"> F  </i>
  <i type="int" name="I_CONSTRAINED_M">     0</i>
  <separator name="electronic exchange-correlation" >
   <i type="string" name="GGA">PE</i>
   <i type="int" name="VOSKOWN">     0</i>
   <i type="logical" name="LHFCALC"> F  </i>
   <i type="string" name="PRECFOCK"></i>
   <i type="logical" name="LSYMGRAD"> F  </i>
   <i type="logical" name="LHFONE"> F  </i>
   <i type="logical" name="LRHFCALC"> F  </i>
   <i type="logical" name="LTHOMAS"> F  </i>
   <i type="logical" name="LMODELHF"> F  </i>
   <i name="ENCUT4O">     -1.00000000</i>
   <i type="int" name="EXXOEP">     0</i>
   <i type="int" name="FOURORBIT">     0</i>
   <i name="AEXX">      0.00000000</i>
   <i name="HFALPHA">      0.00000000</i>
   <i name="MCALPHA">      0.00000000</i>
   <i name="ALDAX">      1.00000000</i>
   <i name="AGGAX">      1.00000000</i>
   <i name="ALDAC">      1.00000000</i>
   <i name="AGGAC">      1.00000000</i>
   <i type="int" name="NKREDX">     1</i>
   <i type="int" name="NKREDY">     1</i>
   <i type="int" name="NKREDZ">     1</i>
   <i type="logical" name="SHIFTRED"> F  </i>
   <i type="logical" name="ODDONLY"> F  </i>
   <i type="logical" name="EVENONLY"> F  </i>
   <i type="int" name="LMAXFOCK">     0</i>
   <i type="int" name="NMAXFOCKAE">     0</i>
   <i type="logical" name="LFOCKAEDFT"> F  </i>
   <i name="HFSCREEN">      0.00000000</i>
   <i name="HFSCREENC">      0.00000000</i>
   <i type="int" name="NBANDSGWLOW">     0</i>
  </separator>
  <separator name="vdW DFT" >
   <i type="logical" name="LUSE_VDW"> F  </i>
   <i name="Zab_VDW">     -0.84910000</i>
   <i name="PARAM1">      0.12340000</i>
   <i name="PARAM2">      1.00000000</i>
   <i name="PARAM3">      0.00000000</i>
  </separator>
  <separator name="model GW" >
   <i type="int" name="MODEL_GW">     0</i>
   <i name="MODEL_EPS0">     53.82698640</i>
   <i name="MODEL_ALPHA">      1.00000000</i>
  </separator>
  <separator name="linear response parameters" >
   <i type="logical" name="LEPSILON"> F  </i>
   <i type="logical" name="LRPA"> F  </i>
   <i type="logical" name="LNABLA"> F  </i>
   <i type="logical" name="LVEL"> F  </i>
   <i type="int" name="KINTER">     0</i>
   <i name="CSHIFT">      0.10000000</i>
   <i name="OMEGAMAX">     -1.00000000</i>
   <i name="DEG_THRESHOLD">      0.00200000</i>
   <i name="RTIME">     -0.10000000</i>
   <i name="WPLASMAI">      0.00000000</i>
   <v name="DFIELD">      0.00000000      0.00000000      0.00000000</v>
   <v name="WPLASMA">      0.00000000      0.00000000      0.00000000      0.00000000      0.00000000      0.00000000      0.00000000      0.00000000      0.00000000</v>
  </separator>
  <separator name="orbital magnetization" >
   <i type="logical" name="NUCIND"> F  </i>
   <v name="MAGPOS">      0.00000000      0.00000000      0.00000000</v>
   <i type="logical" name="LNICSALL"> T  </i>
   <i type="logical" name="ORBITALMAG"> F  </i>
   <i type="logical" name="LMAGBLOCH"> F  </i>
   <i type="logical" name="LCHIMAG"> F  </i>
   <i type="logical" name="LGAUGE"> T  </i>
   <i type="int" name="MAGATOM">     0</i>
   <v name="MAGDIPOL">      0.00000000      0.00000000      0.00000000</v>
   <v name="AVECCONST">      0.00000000      0.00000000      0.00000000</v>
  </separator>
  <separator name="response functions" >
   <i type="logical" name="LADDER"> F  </i>
   <i type="logical" name="LRPAFORCE"> F  </i>
   <i type="logical" name="LFXC"> F  </i>
   <i type="logical" name="LHARTREE"> T  </i>
   <i type="int" name="IBSE">     0</i>
   <v type="int" name="KPOINT">    -1     0     0     0</v>
   <i type="logical" name="LTCTE"> F  </i>
   <i type="logical" name="LTETE"> F  </i>
   <i type="logical" name="LTRIPLET"> F  </i>
   <i type="logical" name="LFXCEPS"> F  </i>
   <i type="logical" name="LFXHEG"> F  </i>
   <i type="int" name="NATURALO">     2</i>
   <i type="logical" name="L2ORDER"> F  </i>
   <i type="logical" name="LMP2LT"> F  </i>
   <i type="logical" name="LUSEW"> F  </i>
   <i name="ENCUTGW">     -2.00000000</i>
   <i name="ENCUTGWSOFT">     -2.00000000</i>
   <i name="ENCUTLF">     -1.00000000</i>
   <i type="int" name="LMAXMP2">    -1</i>
   <i name="SCISSOR">      0.00000000</i>
   <i type="int" name="NOMEGA">     0</i>
   <i type="int" name="NOMEGAR">     0</i>
   <i type="int" name="NBANDSGW">    -1</i>
   <i type="int" name="NBANDSO">    -1</i>
   <i type="int" name="NBANDSV">    -1</i>
   <i type="int" name="NELM">   200</i>
   <i type="int" name="NELMHF">     1</i>
   <i type="int" name="DIM">     3</i>
   <i type="int" name="ANTIRES">     0</i>
   <i name="OMEGAMAX">    -30.00000000</i>
   <i name="OMEGAMIN">    -30.00000000</i>
   <i name="OMEGATL">   -200.00000000</i>
   <i type="int" name="OMEGAGRID">   140</i>
   <i name="CSHIFT">     -0.10000000</i>
   <i type="logical" name="SELFENERGY"> F  </i>
   <i type="logical" name="LSPECTRAL"> F  </i>
   <i type="logical" name="LSPECTRALGW"> F  </i>
   <i type="logical" name="LSINGLES"> F  </i>
   <i type="logical" name="LFERMIGW"> F  </i>
   <i type="logical" name="ODDONLYGW"> F  </i>
   <i type="logical" name="EVENONLYGW"> F  </i>
   <i type="int" name="NKREDLFX">     1</i>
   <i type="int" name="NKREDLFY">     1</i>
   <i type="int" name="NKREDLFZ">     1</i>
   <i type="int" name="MAXMEM">  2800</i>
   <i type="int" name="TELESCOPE">     0</i>
   <i type="int" name="TAUPAR">     1</i>
   <i type="int" name="OMEGAPAR">    -1</i>
   <i name="LAMBDA">      1.00000000</i>
  </separator>
  <separator name="External order field" >
   <i name="OFIELD_KAPPA">      0.00000000</i>
   <v name="OFIELD_K">      0.00000000      0.00000000      0.00000000</v>
   <i name="OFIELD_Q6_NEAR">      0.00000000</i>
   <i name="OFIELD_Q6_FAR">      0.00000000</i>
   <i name="OFIELD_A">      0.00000000</i>
  </separator>
  <separator name="solvation model" >
   <i type="logical" name="LSOL"> F  </i>
  </separator>
 </parameters>
 <atominfo>
  <atoms>      90 </atoms>
  <types>       4 </types>
  <array name="atoms" >
   <dimension dim="1">ion</dimension>
   <field type="string">element</field>
   <field type="int">atomtype</field>
   <set>
    <rc><c>O </c><c>   1</c></rc>
    <rc><c>O </c><c>   1</c></rc>
    <rc><c>O </c><c>   1</c></rc>
    <rc><c>O </c><c>   1</c></rc>
    <rc><c>O </c><c>   1</c></rc>
    <rc><c>O </c><c>   1</c></rc>
    <rc><c>O </c><c>   1</c></rc>
    <rc><c>O </c><c>   1</c></rc>
    <rc><c>O </c><c>   1</c></rc>
    <rc><c>O </c><c>   1</c></rc>
    <rc><c>O </c><c>   1</c></rc>
    <rc><c>O </c><c>   1</c></rc>
    <rc><c>N </c><c>   2</c></rc>
    <rc><c>N </c><c>   2</c></rc>
    <rc><c>N </c><c>   2</c></rc>
    <rc><c>N </c><c>   2</c></rc>
    <rc><c>N </c><c>   2</c></rc>
    <rc><c>N </c><c>   2</c></rc>
    <rc><c>N </c><c>   2</c></rc>
    <rc><c>N </c><c>   2</c></rc>
    <rc><c>N </c><c>   2</c></rc>
    <rc><c>N </c><c>   2</c></rc>
    <rc><c>N </c><c>   2</c></rc>
    <rc><c>N </c><c>   2</c></rc>
    <rc><c>C </c><c>   3</c></rc>
    <rc><c>C </c><c>   3</c></rc>
    <rc><c>C </c><c>   3</c></rc>
    <rc><c>C </c><c>   3</c></rc>
    <rc><c>C </c><c>   3</c></rc>
    <rc><c>C </c><c>   3</c></rc>
    <rc><c>C </c><c>   3</c></rc>
    <rc><c>C </c><c>   3</c></rc>
    <rc><c>C </c><c>   3</c></rc>
    <rc><c>C </c><c>   3</c></rc>
    <rc><c>C </c><c>   3</c></rc>
    <rc><c>C </c><c>   3</c></rc>
    <rc><c>C </c><c>   3</c></rc>
    <rc><c>C </c><c>   3</c></rc>
    <rc><c>C </c><c>   3</c></rc>
    <rc><c>C </c><c>   3</c></rc>
    <rc><c>C </c><c>   3</c></rc>
    <rc><c>C </c><c>   3</c></rc>
    <rc><c>C </c><c>   3</c></rc>
    <rc><c>C </c><c>   3</c></rc>
    <rc><c>C </c><c>   3</c></rc>
    <rc><c>C </c><c>   3</c></rc>
    <rc><c>C </c><c>   3</c></rc>
    <rc><c>C </c><c>   3</c></rc>
    <rc><c>C </c><c>   3</c></rc>
    <rc><c>C </c><c>   3</c></rc>
    <rc><c>C </c><c>   3</c></rc>
    <rc><c>C </c><c>   3</c></rc>
    <rc><c>C </c><c>   3</c></rc>
    <rc><c>C </c><c>   3</c></rc>
    <rc><c>C </c><c>   3</c></rc>
    <rc><c>C </c><c>   3</c></rc>
    <rc><c>C </c><c>   3</c></rc>
    <rc><c>C </c><c>   3</c></rc>
    <rc><c>C </c><c>   3</c></rc>
    <rc><c>C </c><c>   3</c></rc>
    <rc><c>H </c><c>   4</c></rc>
    <rc><c>H </c><c>   4</c></rc>
    <rc><c>H </c><c>   4</c></rc>
    <rc><c>H </c><c>   4</c></rc>
    <rc><c>H </c><c>   4</c></rc>
    <rc><c>H </c><c>   4</c></rc>
    <rc><c>H </c><c>   4</c></rc>
    <rc><c>H </c><c>   4</c></rc>
    <rc><c>H </c><c>   4</c></rc>
    <rc><c>H </c><c>   4</c></rc>
    <rc><c>H </c><c>   4</c></rc>
    <rc><c>H </c><c>   4</c></rc>
    <rc><c>H </c><c>   4</c></rc>
    <rc><c>H </c><c>   4</c></rc>
    <rc><c>H </c><c>   4</c></rc>
    <rc><c>H </c><c>   4</c></rc>
    <rc><c>H </c><c>   4</c></rc>
    <rc><c>H </c><c>   4</c></rc>
    <rc><c>H </c><c>   4</c></rc>
    <rc><c>H </c><c>   4</c></rc>
    <rc><c>H </c><c>   4</c></rc>
    <rc><c>H </c><c>   4</c></rc>
    <rc><c>H </c><c>   4</c></rc>
    <rc><c>H </c><c>   4</c></rc>
    <rc><c>H </c><c>   4</c></rc>
    <rc><c>H </c><c>   4</c></rc>
    <rc><c>H </c><c>   4</c></rc>
    <rc><c>H </c><c>   4</c></rc>
    <rc><c>H </c><c>   4</c></rc>
    <rc><c>H </c><c>   4</c></rc>
   </set>
  </array>
  <array name="atomtypes" >
   <dimension dim="1">type</dimension>
   <field type="int">atomspertype</field>
   <field type="string">element</field>
   <field>mass</field>
   <field>valence</field>
   <field type="string">pseudopotential</field>
   <set>
    <rc><c>  12</c><c>O </c><c>     16.00000000</c><c>      6.00000000</c><c>  PAW_PBE O 08Apr2002                   </c></rc>
    <rc><c>  12</c><c>N </c><c>     14.00100000</c><c>      5.00000000</c><c>  PAW_PBE N 08Apr2002                   </c></rc>
    <rc><c>  36</c><c>C </c><c>     12.01100000</c><c>      4.00000000</c><c>  PAW_PBE C 08Apr2002                   </c></rc>
    <rc><c>  30</c><c>H </c><c>      1.00000000</c><c>      1.00000000</c><c>  PAW_PBE H 15Jun2001                   </c></rc>
   </set>
  </array>
 </atominfo>
 <structure name="initialpos" >
  <crystal>
   <varray name="basis" >
    <v>      21.61294659       0.03972979       0.00000000 </v>
    <v>     -10.77220190      18.65892830       0.00000000 </v>
    <v>       0.00000000       0.00000000      20.00000000 </v>
   </varray>
   <i name="volume">   8074.04796063 </i>
   <varray name="rec_basis" >
    <v>       0.04621951       0.02668352       0.00000000 </v>
    <v>      -0.00009841       0.05353683       0.00000000 </v>
    <v>       0.00000000       0.00000000       0.05000000 </v>
   </varray>
  </crystal>
  <varray name="positions" >
   <v>       0.48742236       0.83661126       0.59611475 </v>
   <v>       0.32907351       0.49616337       0.59280084 </v>
   <v>       0.14959996       0.65607762       0.59573836 </v>
   <v>       0.49042801       0.15704041       0.39546135 </v>
   <v>       0.65074348       0.49724199       0.39749556 </v>
   <v>       0.82989469       0.33648855       0.39672892 </v>
   <v>       0.59863552       0.08843377       0.57139419 </v>
   <v>       0.47212890       0.38659617       0.57166537 </v>
   <v>       0.89714112       0.51379234       0.57281572 </v>
   <v>       0.38056642       0.90342378       0.41615889 </v>
   <v>       0.50632341       0.60633995       0.41728455 </v>
   <v>       0.08185511       0.48083692       0.41678870 </v>
   <v>       0.50482849       0.97251386       0.55299136 </v>
   <v>       0.56989353       0.13679332       0.45669710 </v>
   <v>       0.44993652       0.48069938       0.55333754 </v>
   <v>       0.55119388       0.41711967       0.45828190 </v>
   <v>       0.01310798       0.53652523       0.55384559 </v>
   <v>       0.84867735       0.43526192       0.45899803 </v>
   <v>       0.47435160       0.01947547       0.43450589 </v>
   <v>       0.40921716       0.85532590       0.53109981 </v>
   <v>       0.52914210       0.51273261       0.43601567 </v>
   <v>       0.42810417       0.57636011       0.53132036 </v>
   <v>       0.96588376       0.45767469       0.43614116 </v>
   <v>       0.13014026       0.55828388       0.53125277 </v>
   <v>       0.34523365       0.61257837       0.57023918 </v>
   <v>       0.27210733       0.58988490       0.57057936 </v>
   <v>       0.24906968       0.64004351       0.57055981 </v>
   <v>       0.29943316       0.71335624       0.57133646 </v>
   <v>       0.39512213       0.68572052       0.57124171 </v>
   <v>       0.36585341       0.55553369       0.56753114 </v>
   <v>       0.17170704       0.61965608       0.56870953 </v>
   <v>       0.63386768       0.38042734       0.41957231 </v>
   <v>       0.70695512       0.40295726       0.41933863 </v>
   <v>       0.72993781       0.35273722       0.41961898 </v>
   <v>       0.67946381       0.27944592       0.41863033 </v>
   <v>       0.58390630       0.30729579       0.41856023 </v>
   <v>       0.61355286       0.43774452       0.42238073 </v>
   <v>       0.80734568       0.37319762       0.42234673 </v>
   <v>       0.52763656       0.06479723       0.47380825 </v>
   <v>       0.54286872       0.03996757       0.53369979 </v>
   <v>       0.61240893       0.06117046       0.63225477 </v>
   <v>       0.52092334       0.45904763       0.47510768 </v>
   <v>       0.47984916       0.44295088       0.53436316 </v>
   <v>       0.42903103       0.37085531       0.63126398 </v>
   <v>       0.92064760       0.46563610       0.47562800 </v>
   <v>       0.94560813       0.50646886       0.53507130 </v>
   <v>       0.92443912       0.55624917       0.63285643 </v>
   <v>       0.37236521       0.73633774       0.57098523 </v>
   <v>       0.42906356       0.81397529       0.56901329 </v>
   <v>       0.60652246       0.25654644       0.41880497 </v>
   <v>       0.54950338       0.17896428       0.42083715 </v>
   <v>       0.43628424       0.95202119       0.45381978 </v>
   <v>       0.45144835       0.92723543       0.51379830 </v>
   <v>       0.36626782       0.93049951       0.35546845 </v>
   <v>       0.49906568       0.55034678       0.45488268 </v>
   <v>       0.45825371       0.53442255       0.51428272 </v>
   <v>       0.54911833       0.62179803       0.35750577 </v>
   <v>       0.03338492       0.48782747       0.45482917 </v>
   <v>       0.05828105       0.52838513       0.51445018 </v>
   <v>       0.05426876       0.43772276       0.35713318 </v>
   <v>       0.27976223       0.75118914       0.57330678 </v>
   <v>       0.45242080       0.70535649       0.57324144 </v>
   <v>       0.23449697       0.53239865       0.57195625 </v>
   <v>       0.69913405       0.24160950       0.41673220 </v>
   <v>       0.52660728       0.28766661       0.41655931 </v>
   <v>       0.74460954       0.46043042       0.41791322 </v>
   <v>       0.66002660       0.10658211       0.65377096 </v>
   <v>       0.56689053       0.04235591       0.66662444 </v>
   <v>       0.62160025       0.01644168       0.62144863 </v>
   <v>       0.61467135       0.16324320       0.48509704 </v>
   <v>       0.42632697       0.32259469       0.65213800 </v>
   <v>       0.45418200       0.41551910       0.66686500 </v>
   <v>       0.37558086       0.36162893       0.61894010 </v>
   <v>       0.53269906       0.37191062       0.48629292 </v>
   <v>       0.87908997       0.55887710       0.65400591 </v>
   <v>       0.94370268       0.53044267       0.66800081 </v>
   <v>       0.96868051       0.60993690       0.62103176 </v>
   <v>       0.82191012       0.45330446       0.48746721 </v>
   <v>       0.31830606       0.88510985       0.33438495 </v>
   <v>       0.35739549       0.97540275       0.36642532 </v>
   <v>       0.41137009       0.94896681       0.32063599 </v>
   <v>       0.36494350       0.82836658       0.50215989 </v>
   <v>       0.55150847       0.66981624       0.33638403 </v>
   <v>       0.60270418       0.63131912       0.36967112 </v>
   <v>       0.52392815       0.57686661       0.32218546 </v>
   <v>       0.44612891       0.62133973       0.50305198 </v>
   <v>       0.09963325       0.43525624       0.33579771 </v>
   <v>       0.01040578       0.38400684       0.36951426 </v>
   <v>       0.03438950       0.46287677       0.32189484 </v>
   <v>       0.15684987       0.54053932       0.50231049 </v>
  </varray>
 </structure>
 <calculation>
  <scstep>
   <time name="dav">  261.16  263.86</time>
   <time name="total">  261.28  263.99</time>
   <energy>
    <i name="alphaZ">     51.12241720 </i>
    <i name="ewald">  34151.44264182 </i>
    <i name="hartreedc"> -45877.17031051 </i>
    <i name="XCdc">   1165.53815748 </i>
    <i name="pawpsdc">  27931.01642567 </i>
    <i name="pawaedc"> -27997.59209200 </i>
    <i name="eentropy">     -0.00000000 </i>
    <i name="bandstr">  -4071.95890237 </i>
    <i name="atom">  14034.63148519 </i>
    <i name="e_fr_energy">   -612.97017753 </i>
    <i name="e_wo_entrp">   -612.97017753 </i>
    <i name="e_0_energy">   -612.97017753 </i>
   </energy>
  </scstep>
  <scstep>
   <time name="dav">  299.54  302.60</time>
   <time name="total">  299.54  302.61</time>
   <energy>
    <i name="e_fr_energy">   -613.79475727 </i>
    <i name="e_wo_entrp">   -613.79475727 </i>
    <i name="e_0_energy">   -613.79475727 </i>
   </energy>
  </scstep>
  <scstep>
   <time name="dav">  326.35  329.60</time>
   <time name="total">  326.36  329.60</time>
   <energy>
    <i name="e_fr_energy">   -613.81525604 </i>
    <i name="e_wo_entrp">   -613.81525604 </i>
    <i name="e_0_energy">   -613.81525604 </i>
   </energy>
  </scstep>
  <scstep>
   <time name="dav">  302.85  305.89</time>
   <time name="total">  302.85  305.89</time>
   <energy>
    <i name="e_fr_energy">   -613.81570393 </i>
    <i name="e_wo_entrp">   -613.81570393 </i>
    <i name="e_0_energy">   -613.81570393 </i>
   </energy>
  </scstep>
  <scstep>
   <time name="dav">  297.80  300.78</time>
   <time name="total">  297.80  300.78</time>
   <energy>
    <i name="e_fr_energy">   -613.81572454 </i>
    <i name="e_wo_entrp">   -613.81572454 </i>
    <i name="e_0_energy">   -613.81572454 </i>
   </energy>
  </scstep>
  <scstep>
   <time name="dav">  233.57  235.92</time>
   <time name="total">  233.57  235.92</time>
   <energy>
    <i name="alphaZ">     51.12241720 </i>
    <i name="ewald">  34151.44264182 </i>
    <i name="hartreedc"> -45877.17031051 </i>
    <i name="XCdc">   1165.53815748 </i>
    <i name="pawpsdc">  27931.01642567 </i>
    <i name="pawaedc"> -27997.59209200 </i>
    <i name="eentropy">     -0.00000000 </i>
    <i name="bandstr">  -4072.80444982 </i>
    <i name="atom">  14034.63148519 </i>
    <i name="e_fr_energy">   -613.81572498 </i>
    <i name="e_wo_entrp">   -613.81572498 </i>
    <i name="e_0_energy">   -613.81572498 </i>
   </energy>
  </scstep>
  <structure>
   <crystal>
    <varray name="basis" >
     <v>      21.61294659       0.03972979       0.00000000 </v>
     <v>     -10.77220190      18.65892830       0.00000000 </v>
     <v>       0.00000000       0.00000000      20.00000000 </v>
    </varray>
    <i name="volume">   8074.04796063 </i>
    <varray name="rec_basis" >
     <v>       0.04621951       0.02668352       0.00000000 </v>
     <v>      -0.00009841       0.05353683       0.00000000 </v>
     <v>       0.00000000       0.00000000       0.05000000 </v>
    </varray>
   </crystal>
   <varray name="positions" >
    <v>       0.48742236       0.83661126       0.59611475 </v>
    <v>       0.32907351       0.49616337       0.59280084 </v>
    <v>       0.14959996       0.65607762       0.59573836 </v>
    <v>       0.49042801       0.15704041       0.39546135 </v>
    <v>       0.65074348       0.49724199       0.39749556 </v>
    <v>       0.82989469       0.33648855       0.39672892 </v>
    <v>       0.59863552       0.08843377       0.57139419 </v>
    <v>       0.47212890       0.38659617       0.57166537 </v>
    <v>       0.89714112       0.51379234       0.57281572 </v>
    <v>       0.38056642       0.90342378       0.41615889 </v>
    <v>       0.50632341       0.60633995       0.41728455 </v>
    <v>       0.08185511       0.48083692       0.41678870 </v>
    <v>       0.50482849       0.97251386       0.55299136 </v>
    <v>       0.56989353       0.13679332       0.45669710 </v>
    <v>       0.44993652       0.48069938       0.55333754 </v>
    <v>       0.55119388       0.41711967       0.45828190 </v>
    <v>       0.01310798       0.53652523       0.55384559 </v>
    <v>       0.84867735       0.43526192       0.45899803 </v>
    <v>       0.47435160       0.01947547       0.43450589 </v>
    <v>       0.40921716       0.85532590       0.53109981 </v>
    <v>       0.52914210       0.51273261       0.43601567 </v>
    <v>       0.42810417       0.57636011       0.53132036 </v>
    <v>       0.96588376       0.45767469       0.43614116 </v>
    <v>       0.13014026       0.55828388       0.53125277 </v>
    <v>       0.34523365       0.61257837       0.57023918 </v>
    <v>       0.27210733       0.58988490       0.57057936 </v>
    <v>       0.24906968       0.64004351       0.57055981 </v>
    <v>       0.29943316       0.71335624       0.57133646 </v>
    <v>       0.39512213       0.68572052       0.57124171 </v>
    <v>       0.36585341       0.55553369       0.56753114 </v>
    <v>       0.17170704       0.61965608       0.56870953 </v>
    <v>       0.63386768       0.38042734       0.41957231 </v>
    <v>       0.70695512       0.40295726       0.41933863 </v>
    <v>       0.72993781       0.35273722       0.41961898 </v>
    <v>       0.67946381       0.27944592       0.41863033 </v>
    <v>       0.58390630       0.30729579       0.41856023 </v>
    <v>       0.61355286       0.43774452       0.42238073 </v>
    <v>       0.80734568       0.37319762       0.42234673 </v>
    <v>       0.52763656       0.06479723       0.47380825 </v>
    <v>       0.54286872       0.03996757       0.53369979 </v>
    <v>       0.61240893       0.06117046       0.63225477 </v>
    <v>       0.52092334       0.45904763       0.47510768 </v>
    <v>       0.47984916       0.44295088       0.53436316 </v>
    <v>       0.42903103       0.37085531       0.63126398 </v>
    <v>       0.92064760       0.46563610       0.47562800 </v>
    <v>       0.94560813       0.50646886       0.53507130 </v>
    <v>       0.92443912       0.55624917       0.63285643 </v>
    <v>       0.37236521       0.73633774       0.57098523 </v>
    <v>       0.42906356       0.81397529       0.56901329 </v>
    <v>       0.60652246       0.25654644       0.41880497 </v>
    <v>       0.54950338       0.17896428       0.42083715 </v>
    <v>       0.43628424       0.95202119       0.45381978 </v>
    <v>       0.45144835       0.92723543       0.51379830 </v>
    <v>       0.36626782       0.93049951       0.35546845 </v>
    <v>       0.49906568       0.55034678       0.45488268 </v>
    <v>       0.45825371       0.53442255       0.51428272 </v>
    <v>       0.54911833       0.62179803       0.35750577 </v>
    <v>       0.03338492       0.48782747       0.45482917 </v>
    <v>       0.05828105       0.52838513       0.51445018 </v>
    <v>       0.05426876       0.43772276       0.35713318 </v>
    <v>       0.27976223       0.75118914       0.57330678 </v>
    <v>       0.45242080       0.70535649       0.57324144 </v>
    <v>       0.23449697       0.53239865       0.57195625 </v>
    <v>       0.69913405       0.24160950       0.41673220 </v>
    <v>       0.52660728       0.28766661       0.41655931 </v>
    <v>       0.74460954       0.46043042       0.41791322 </v>
    <v>       0.66002660       0.10658211       0.65377096 </v>
    <v>       0.56689053       0.04235591       0.66662444 </v>
    <v>       0.62160025       0.01644168       0.62144863 </v>
    <v>       0.61467135       0.16324320       0.48509704 </v>
    <v>       0.42632697       0.32259469       0.65213800 </v>
    <v>       0.45418200       0.41551910       0.66686500 </v>
    <v>       0.37558086       0.36162893       0.61894010 </v>
    <v>       0.53269906       0.37191062       0.48629292 </v>
    <v>       0.87908997       0.55887710       0.65400591 </v>
    <v>       0.94370268       0.53044267       0.66800081 </v>
    <v>       0.96868051       0.60993690       0.62103176 </v>
    <v>       0.82191012       0.45330446       0.48746721 </v>
    <v>       0.31830606       0.88510985       0.33438495 </v>
    <v>       0.35739549       0.97540275       0.36642532 </v>
    <v>       0.41137009       0.94896681       0.32063599 </v>
    <v>       0.36494350       0.82836658       0.50215989 </v>
    <v>       0.55150847       0.66981624       0.33638403 </v>
    <v>       0.60270418       0.63131912       0.36967112 </v>
    <v>       0.52392815       0.57686661       0.32218546 </v>
    <v>       0.44612891       0.62133973       0.50305198 </v>
    <v>       0.09963325       0.43525624       0.33579771 </v>
    <v>       0.01040578       0.38400684       0.36951426 </v>
    <v>       0.03438950       0.46287677       0.32189484 </v>
    <v>       0.15684987       0.54053932       0.50231049 </v>
   </varray>
  </structure>
  <varray name="forces" >
   <v>      -0.00038443       0.00019439      -0.00140306 </v>
   <v>      -0.00252161       0.00340698      -0.00490954 </v>
   <v>       0.00488851      -0.00531607      -0.00176735 </v>
   <v>      -0.00284307      -0.00130236      -0.00371855 </v>
   <v>      -0.00106802      -0.00535574       0.00493577 </v>
   <v>       0.00496150      -0.00330655      -0.00479355 </v>
   <v>      -0.00004330      -0.00356775      -0.00225760 </v>
   <v>       0.00030078      -0.00007068       0.00082002 </v>
   <v>      -0.00061670      -0.00006987      -0.00127708 </v>
   <v>      -0.00198801       0.00015945      -0.00106027 </v>
   <v>       0.00158779      -0.00124747       0.00121376 </v>
   <v>      -0.00084702      -0.00271386       0.00055888 </v>
   <v>      -0.00097718      -0.00141546      -0.00062897 </v>
   <v>       0.00488730      -0.00029341      -0.00167044 </v>
   <v>       0.00027888       0.00073124      -0.00059814 </v>
   <v>      -0.00042906      -0.00423185       0.00347535 </v>
   <v>       0.00209466      -0.00318088      -0.00033818 </v>
   <v>       0.00134839       0.00079545      -0.00057912 </v>
   <v>       0.00226699       0.00370256       0.00019961 </v>
   <v>       0.00168964       0.00020335       0.00119372 </v>
   <v>      -0.00270869       0.00419768      -0.00048746 </v>
   <v>      -0.00277431       0.00625157      -0.00188205 </v>
   <v>      -0.00024604       0.00032518       0.00120694 </v>
   <v>       0.00379162      -0.00156752      -0.00207248 </v>
   <v>       0.00080582       0.00020711      -0.00011902 </v>
   <v>       0.00053977       0.00157827       0.00074725 </v>
   <v>       0.00196078       0.00117376      -0.00018140 </v>
   <v>      -0.00144735       0.00108076       0.00130400 </v>
   <v>       0.00145561       0.00078436      -0.00036118 </v>
   <v>      -0.00166489      -0.00482386       0.00206863 </v>
   <v>      -0.00575221       0.00435233       0.00444295 </v>
   <v>       0.00037060      -0.00029562       0.00260497 </v>
   <v>       0.00238370      -0.00041547       0.00190261 </v>
   <v>       0.00161468      -0.00132869      -0.00002745 </v>
   <v>       0.00131670       0.00029628      -0.00054616 </v>
   <v>       0.00087723       0.00119648       0.00081992 </v>
   <v>      -0.00000887       0.00457436      -0.00152386 </v>
   <v>      -0.00704705       0.00339977       0.00103119 </v>
   <v>       0.00015617      -0.00035340       0.00012422 </v>
   <v>       0.00052452       0.00401982      -0.00400472 </v>
   <v>       0.00175761       0.00035422      -0.00157642 </v>
   <v>       0.00004553      -0.00089873       0.00334357 </v>
   <v>      -0.00034689       0.00135963      -0.00088254 </v>
   <v>      -0.00186342      -0.00124125       0.00110625 </v>
   <v>       0.00083421       0.00051212      -0.00006812 </v>
   <v>      -0.00325980       0.00024800       0.00144869 </v>
   <v>       0.00051985       0.00047020      -0.00141727 </v>
   <v>      -0.00229670      -0.00104711       0.00000000 </v>
   <v>      -0.00008929      -0.00000052      -0.00225998 </v>
   <v>      -0.00007722       0.00056396      -0.00093155 </v>
   <v>       0.00289427       0.00291880      -0.00052854 </v>
   <v>       0.00172503      -0.00132446       0.00186894 </v>
   <v>       0.00152493       0.00330289      -0.00301101 </v>
   <v>      -0.00203844       0.00068379       0.00125459 </v>
   <v>       0.00153417      -0.00256824       0.00152156 </v>
   <v>       0.00084632      -0.00125635      -0.00157238 </v>
   <v>       0.00092769      -0.00029061      -0.00068330 </v>
   <v>       0.00001643      -0.00015209       0.00093922 </v>
   <v>      -0.00161125      -0.00215736      -0.00050811 </v>
   <v>       0.00080967       0.00090164       0.00226151 </v>
   <v>       0.00240690      -0.00110195       0.00087803 </v>
   <v>       0.00036004       0.00004327      -0.00076206 </v>
   <v>       0.00067735      -0.00157443       0.00007682 </v>
   <v>      -0.00082016       0.00158247      -0.00021888 </v>
   <v>      -0.00061457       0.00006810       0.00166370 </v>
   <v>      -0.00101057       0.00021632       0.00374054 </v>
   <v>       0.00478143      -0.00004532      -0.00056240 </v>
   <v>       0.00132219      -0.00026153       0.00115835 </v>
   <v>       0.00254383      -0.00003525      -0.00291996 </v>
   <v>      -0.00261685      -0.00033130      -0.00120584 </v>
   <v>      -0.00125037      -0.00011151      -0.00117145 </v>
   <v>      -0.00265250      -0.00205706       0.00062418 </v>
   <v>      -0.00102021      -0.00040316      -0.00115127 </v>
   <v>      -0.00096296       0.00254693      -0.00158679 </v>
   <v>       0.00062846       0.00084933       0.00035469 </v>
   <v>      -0.00015116       0.00064621      -0.00006627 </v>
   <v>      -0.00101065       0.00188706       0.00035876 </v>
   <v>       0.00069051      -0.00017739      -0.00289189 </v>
   <v>      -0.00105703       0.00037330       0.00141997 </v>
   <v>      -0.00232976       0.00057273       0.00079263 </v>
   <v>      -0.00293149       0.00003479       0.00052666 </v>
   <v>      -0.00103063       0.00061546      -0.00090507 </v>
   <v>       0.00019269      -0.00125492      -0.00036366 </v>
   <v>       0.00093782      -0.00019573      -0.00077638 </v>
   <v>       0.00066484      -0.00014219      -0.00007627 </v>
   <v>      -0.00011803      -0.00374064       0.00331634 </v>
   <v>       0.00015508       0.00053024       0.00136838 </v>
   <v>      -0.00036543      -0.00035791       0.00004670 </v>
   <v>      -0.00011667      -0.00078203       0.00243239 </v>
   <v>      -0.00388863       0.00045295       0.00315275 </v>
  </varray>
  <varray name="stress" >
   <v>       0.01883306       0.00644782      -0.00021849 </v>
   <v>       0.00644783       0.01933845      -0.02627874 </v>
   <v>      -0.00021849      -0.02627874      -0.34842524 </v>
  </varray>
  <energy>
   <i name="e_fr_energy">   -615.59877707 </i>
   <i name="e_wo_entrp">   -615.59877707 </i>
   <i name="e_0_energy">     -0.00000000 </i>
  </energy>
  <time name="totalsc"> 2027.82 2049.07</time>
  <eigenvalues>
   <array>
    <dimension dim="1">band</dimension>
    <dimension dim="2">kpoint</dimension>
    <dimension dim="3">spin</dimension>
    <field>eigene</field>
    <field>occ</field>
    <set>
     <set comment="spin 1">
      <set comment="kpoint 1">
       <r>  -26.9298    1.0000 </r>
       <r>  -26.9291    1.0000 </r>
       <r>  -26.9290    1.0000 </r>
       <r>  -26.7762    1.0000 </r>
       <r>  -26.7759    1.0000 </r>
       <r>  -26.7756    1.0000 </r>
       <r>  -25.7721    1.0000 </r>
       <r>  -25.7679    1.0000 </r>
       <r>  -25.7585    1.0000 </r>
       <r>  -25.7552    1.0000 </r>
       <r>  -25.7538    1.0000 </r>
       <r>  -25.7528    1.0000 </r>
       <r>  -24.4121    1.0000 </r>
       <r>  -24.4114    1.0000 </r>
       <r>  -24.4105    1.0000 </r>
       <r>  -23.6743    1.0000 </r>
       <r>  -23.6718    1.0000 </r>
       <r>  -23.6688    1.0000 </r>
       <r>  -22.8973    1.0000 </r>
       <r>  -22.8822    1.0000 </r>
       <r>  -22.8794    1.0000 </r>
       <r>  -22.1151    1.0000 </r>
       <r>  -22.0623    1.0000 </r>
       <r>  -22.0604    1.0000 </r>
       <r>  -21.5801    1.0000 </r>
       <r>  -21.5548    1.0000 </r>
       <r>  -19.4937    1.0000 </r>
       <r>  -19.4925    1.0000 </r>
       <r>  -19.2054    1.0000 </r>
       <r>  -19.2044    1.0000 </r>
       <r>  -18.9893    1.0000 </r>
       <r>  -18.5726    1.0000 </r>
       <r>  -18.5711    1.0000 </r>
       <r>  -18.0168    1.0000 </r>
       <r>  -17.9758    1.0000 </r>
       <r>  -17.9749    1.0000 </r>
       <r>  -17.1039    1.0000 </r>
       <r>  -16.9695    1.0000 </r>
       <r>  -16.9672    1.0000 </r>
       <r>  -16.8618    1.0000 </r>
       <r>  -16.8312    1.0000 </r>
       <r>  -16.8306    1.0000 </r>
       <r>  -15.8591    1.0000 </r>
       <r>  -15.8578    1.0000 </r>
       <r>  -15.5038    1.0000 </r>
       <r>  -15.4212    1.0000 </r>
       <r>  -15.4185    1.0000 </r>
       <r>  -15.3047    1.0000 </r>
       <r>  -15.2550    1.0000 </r>
       <r>  -15.2544    1.0000 </r>
       <r>  -14.7793    1.0000 </r>
       <r>  -14.7750    1.0000 </r>
       <r>  -14.6529    1.0000 </r>
       <r>  -14.3350    1.0000 </r>
       <r>  -13.7965    1.0000 </r>
       <r>  -13.7956    1.0000 </r>
       <r>  -13.5438    1.0000 </r>
       <r>  -13.4814    1.0000 </r>
       <r>  -13.4791    1.0000 </r>
       <r>  -13.4347    1.0000 </r>
       <r>  -13.4340    1.0000 </r>
       <r>  -13.0737    1.0000 </r>
       <r>  -12.9631    1.0000 </r>
       <r>  -12.6599    1.0000 </r>
       <r>  -12.5391    1.0000 </r>
       <r>  -12.5349    1.0000 </r>
       <r>  -12.3365    1.0000 </r>
       <r>  -12.3356    1.0000 </r>
       <r>  -12.2514    1.0000 </r>
       <r>  -11.9969    1.0000 </r>
       <r>  -11.8718    1.0000 </r>
       <r>  -11.8708    1.0000 </r>
       <r>  -11.8358    1.0000 </r>
       <r>  -11.7947    1.0000 </r>
       <r>  -11.6970    1.0000 </r>
       <r>  -11.6774    1.0000 </r>
       <r>  -11.6754    1.0000 </r>
       <r>  -11.3147    1.0000 </r>
       <r>  -11.2192    1.0000 </r>
       <r>  -11.1514    1.0000 </r>
       <r>  -11.1504    1.0000 </r>
       <r>  -11.0760    1.0000 </r>
       <r>  -11.0753    1.0000 </r>
       <r>  -11.0608    1.0000 </r>
       <r>  -11.0603    1.0000 </r>
       <r>  -11.0572    1.0000 </r>
       <r>  -10.3700    1.0000 </r>
       <r>  -10.3627    1.0000 </r>
       <r>  -10.3610    1.0000 </r>
       <r>  -10.3243    1.0000 </r>
       <r>  -10.3105    1.0000 </r>
       <r>  -10.3093    1.0000 </r>
       <r>  -10.2164    1.0000 </r>
       <r>  -10.2137    1.0000 </r>
       <r>  -10.1668    1.0000 </r>
       <r>  -10.1417    1.0000 </r>
       <r>  -10.1384    1.0000 </r>
       <r>  -10.1366    1.0000 </r>
       <r>   -9.8779    1.0000 </r>
       <r>   -9.7805    1.0000 </r>
       <r>   -9.7783    1.0000 </r>
       <r>   -9.7590    1.0000 </r>
       <r>   -9.7566    1.0000 </r>
       <r>   -9.6532    1.0000 </r>
       <r>   -9.6318    1.0000 </r>
       <r>   -9.5504    1.0000 </r>
       <r>   -9.5486    1.0000 </r>
       <r>   -9.1976    1.0000 </r>
       <r>   -8.7579    1.0000 </r>
       <r>   -8.7569    1.0000 </r>
       <r>   -8.7248    1.0000 </r>
       <r>   -8.7237    1.0000 </r>
       <r>   -8.7045    1.0000 </r>
       <r>   -8.4985    1.0000 </r>
       <r>   -8.4983    1.0000 </r>
       <r>   -8.4917    1.0000 </r>
       <r>   -8.3689    1.0000 </r>
       <r>   -8.3664    1.0000 </r>
       <r>   -8.2777    1.0000 </r>
       <r>   -8.2750    1.0000 </r>
       <r>   -8.2740    1.0000 </r>
       <r>   -8.2074    1.0000 </r>
       <r>   -8.1405    1.0000 </r>
       <r>   -8.1382    1.0000 </r>
       <r>   -8.0080    1.0000 </r>
       <r>   -7.3250    1.0000 </r>
       <r>   -7.3236    1.0000 </r>
       <r>   -7.2889    1.0000 </r>
       <r>   -6.9445    1.0000 </r>
       <r>   -6.9432    1.0000 </r>
       <r>   -6.9298    1.0000 </r>
       <r>   -6.7427    1.0000 </r>
       <r>   -6.7405    1.0000 </r>
       <r>   -6.6860    1.0000 </r>
       <r>   -6.6844    1.0000 </r>
       <r>   -6.6704    1.0000 </r>
       <r>   -6.5580    1.0000 </r>
       <r>   -6.5467    1.0000 </r>
       <r>   -6.5439    1.0000 </r>
       <r>   -6.4208    1.0000 </r>
       <r>   -6.4182    1.0000 </r>
       <r>   -6.2961    1.0000 </r>
       <r>   -6.2290    1.0000 </r>
       <r>   -6.2240    1.0000 </r>
       <r>   -5.7382    1.0000 </r>
       <r>   -5.5095    1.0000 </r>
       <r>   -5.5068    1.0000 </r>
       <r>   -5.4445    1.0000 </r>
       <r>   -5.2439    1.0000 </r>
       <r>   -5.2404    1.0000 </r>
       <r>   -4.5795    1.0000 </r>
       <r>   -4.5761    1.0000 </r>
       <r>   -4.5717    1.0000 </r>
       <r>   -2.4286    0.0000 </r>
       <r>   -2.4232    0.0000 </r>
       <r>   -2.0721    0.0000 </r>
       <r>   -2.0642    0.0000 </r>
       <r>   -1.9383    0.0000 </r>
       <r>   -1.4092    0.0000 </r>
       <r>   -1.4080    0.0000 </r>
       <r>   -0.9712    0.0000 </r>
       <r>   -0.7644    0.0000 </r>
       <r>   -0.5323    0.0000 </r>
       <r>   -0.5323    0.0000 </r>
       <r>   -0.4362    0.0000 </r>
       <r>   -0.2692    0.0000 </r>
       <r>   -0.0172    0.0000 </r>
       <r>   -0.0122    0.0000 </r>
       <r>    0.1919    0.0000 </r>
       <r>    0.1963    0.0000 </r>
       <r>    0.2009    0.0000 </r>
       <r>    0.2372    0.0000 </r>
       <r>    0.3886    0.0000 </r>
       <r>    0.4329    0.0000 </r>
       <r>    0.4442    0.0000 </r>
       <r>    0.4924    0.0000 </r>
       <r>    0.4946    0.0000 </r>
       <r>    0.5828    0.0000 </r>
       <r>    0.5833    0.0000 </r>
       <r>    0.5920    0.0000 </r>
       <r>    0.6789    0.0000 </r>
       <r>    0.6839    0.0000 </r>
       <r>    0.7533    0.0000 </r>
       <r>    0.8315    0.0000 </r>
       <r>    0.8357    0.0000 </r>
       <r>    0.8376    0.0000 </r>
       <r>    0.8413    0.0000 </r>
       <r>    0.8857    0.0000 </r>
       <r>    0.9525    0.0000 </r>
       <r>    0.9713    0.0000 </r>
       <r>    1.1158    0.0000 </r>
       <r>    1.1214    0.0000 </r>
       <r>    1.1309    0.0000 </r>
       <r>    1.1626    0.0000 </r>
       <r>    1.1678    0.0000 </r>
       <r>    1.1690    0.0000 </r>
       <r>    1.3169    0.0000 </r>
       <r>    1.3354    0.0000 </r>
       <r>    1.3381    0.0000 </r>
       <r>    1.3441    0.0000 </r>
       <r>    1.3646    0.0000 </r>
       <r>    1.4137    0.0000 </r>
       <r>    1.4346    0.0000 </r>
       <r>    1.4396    0.0000 </r>
       <r>    1.5096    0.0000 </r>
       <r>    1.5136    0.0000 </r>
       <r>    1.5647    0.0000 </r>
       <r>    1.6224    0.0000 </r>
      </set>
      <set comment="kpoint 2">
       <r>  -26.9298    1.0000 </r>
       <r>  -26.9291    1.0000 </r>
       <r>  -26.9290    1.0000 </r>
       <r>  -26.7762    1.0000 </r>
       <r>  -26.7759    1.0000 </r>
       <r>  -26.7756    1.0000 </r>
       <r>  -25.7721    1.0000 </r>
       <r>  -25.7679    1.0000 </r>
       <r>  -25.7585    1.0000 </r>
       <r>  -25.7552    1.0000 </r>
       <r>  -25.7538    1.0000 </r>
       <r>  -25.7528    1.0000 </r>
       <r>  -24.4121    1.0000 </r>
       <r>  -24.4114    1.0000 </r>
       <r>  -24.4105    1.0000 </r>
       <r>  -23.6743    1.0000 </r>
       <r>  -23.6718    1.0000 </r>
       <r>  -23.6688    1.0000 </r>
       <r>  -22.8972    1.0000 </r>
       <r>  -22.8822    1.0000 </r>
       <r>  -22.8794    1.0000 </r>
       <r>  -22.1150    1.0000 </r>
       <r>  -22.0624    1.0000 </r>
       <r>  -22.0604    1.0000 </r>
       <r>  -21.5801    1.0000 </r>
       <r>  -21.5549    1.0000 </r>
       <r>  -19.4935    1.0000 </r>
       <r>  -19.4925    1.0000 </r>
       <r>  -19.2065    1.0000 </r>
       <r>  -19.2045    1.0000 </r>
       <r>  -18.9880    1.0000 </r>
       <r>  -18.5728    1.0000 </r>
       <r>  -18.5714    1.0000 </r>
       <r>  -18.0167    1.0000 </r>
       <r>  -17.9758    1.0000 </r>
       <r>  -17.9749    1.0000 </r>
       <r>  -17.1037    1.0000 </r>
       <r>  -16.9697    1.0000 </r>
       <r>  -16.9672    1.0000 </r>
       <r>  -16.8618    1.0000 </r>
       <r>  -16.8312    1.0000 </r>
       <r>  -16.8306    1.0000 </r>
       <r>  -15.8588    1.0000 </r>
       <r>  -15.8577    1.0000 </r>
       <r>  -15.5067    1.0000 </r>
       <r>  -15.4187    1.0000 </r>
       <r>  -15.4181    1.0000 </r>
       <r>  -15.3047    1.0000 </r>
       <r>  -15.2547    1.0000 </r>
       <r>  -15.2544    1.0000 </r>
       <r>  -14.7812    1.0000 </r>
       <r>  -14.7749    1.0000 </r>
       <r>  -14.6512    1.0000 </r>
       <r>  -14.3353    1.0000 </r>
       <r>  -13.7963    1.0000 </r>
       <r>  -13.7955    1.0000 </r>
       <r>  -13.5443    1.0000 </r>
       <r>  -13.4813    1.0000 </r>
       <r>  -13.4792    1.0000 </r>
       <r>  -13.4346    1.0000 </r>
       <r>  -13.4340    1.0000 </r>
       <r>  -13.0734    1.0000 </r>
       <r>  -12.9632    1.0000 </r>
       <r>  -12.6597    1.0000 </r>
       <r>  -12.5391    1.0000 </r>
       <r>  -12.5351    1.0000 </r>
       <r>  -12.3366    1.0000 </r>
       <r>  -12.3355    1.0000 </r>
       <r>  -12.2516    1.0000 </r>
       <r>  -11.9967    1.0000 </r>
       <r>  -11.8718    1.0000 </r>
       <r>  -11.8711    1.0000 </r>
       <r>  -11.8356    1.0000 </r>
       <r>  -11.7947    1.0000 </r>
       <r>  -11.6970    1.0000 </r>
       <r>  -11.6775    1.0000 </r>
       <r>  -11.6754    1.0000 </r>
       <r>  -11.3146    1.0000 </r>
       <r>  -11.2195    1.0000 </r>
       <r>  -11.1512    1.0000 </r>
       <r>  -11.1504    1.0000 </r>
       <r>  -11.0761    1.0000 </r>
       <r>  -11.0754    1.0000 </r>
       <r>  -11.0608    1.0000 </r>
       <r>  -11.0603    1.0000 </r>
       <r>  -11.0572    1.0000 </r>
       <r>  -10.3701    1.0000 </r>
       <r>  -10.3626    1.0000 </r>
       <r>  -10.3608    1.0000 </r>
       <r>  -10.3247    1.0000 </r>
       <r>  -10.3105    1.0000 </r>
       <r>  -10.3089    1.0000 </r>
       <r>  -10.2165    1.0000 </r>
       <r>  -10.2137    1.0000 </r>
       <r>  -10.1669    1.0000 </r>
       <r>  -10.1417    1.0000 </r>
       <r>  -10.1384    1.0000 </r>
       <r>  -10.1366    1.0000 </r>
       <r>   -9.8776    1.0000 </r>
       <r>   -9.7805    1.0000 </r>
       <r>   -9.7783    1.0000 </r>
       <r>   -9.7590    1.0000 </r>
       <r>   -9.7566    1.0000 </r>
       <r>   -9.6533    1.0000 </r>
       <r>   -9.6318    1.0000 </r>
       <r>   -9.5505    1.0000 </r>
       <r>   -9.5492    1.0000 </r>
       <r>   -9.1966    1.0000 </r>
       <r>   -8.7579    1.0000 </r>
       <r>   -8.7571    1.0000 </r>
       <r>   -8.7249    1.0000 </r>
       <r>   -8.7237    1.0000 </r>
       <r>   -8.7053    1.0000 </r>
       <r>   -8.4985    1.0000 </r>
       <r>   -8.4982    1.0000 </r>
       <r>   -8.4917    1.0000 </r>
       <r>   -8.3685    1.0000 </r>
       <r>   -8.3661    1.0000 </r>
       <r>   -8.2777    1.0000 </r>
       <r>   -8.2750    1.0000 </r>
       <r>   -8.2740    1.0000 </r>
       <r>   -8.2074    1.0000 </r>
       <r>   -8.1405    1.0000 </r>
       <r>   -8.1382    1.0000 </r>
       <r>   -8.0082    1.0000 </r>
       <r>   -7.3249    1.0000 </r>
       <r>   -7.3236    1.0000 </r>
       <r>   -7.2890    1.0000 </r>
       <r>   -6.9445    1.0000 </r>
       <r>   -6.9432    1.0000 </r>
       <r>   -6.9298    1.0000 </r>
       <r>   -6.7426    1.0000 </r>
       <r>   -6.7405    1.0000 </r>
       <r>   -6.6860    1.0000 </r>
       <r>   -6.6844    1.0000 </r>
       <r>   -6.6704    1.0000 </r>
       <r>   -6.5609    1.0000 </r>
       <r>   -6.5444    1.0000 </r>
       <r>   -6.5434    1.0000 </r>
       <r>   -6.4208    1.0000 </r>
       <r>   -6.4183    1.0000 </r>
       <r>   -6.2960    1.0000 </r>
       <r>   -6.2291    1.0000 </r>
       <r>   -6.2240    1.0000 </r>
       <r>   -5.7380    1.0000 </r>
       <r>   -5.5098    1.0000 </r>
       <r>   -5.5079    1.0000 </r>
       <r>   -5.4431    1.0000 </r>
       <r>   -5.2439    1.0000 </r>
       <r>   -5.2405    1.0000 </r>
       <r>   -4.5795    1.0000 </r>
       <r>   -4.5761    1.0000 </r>
       <r>   -4.5717    1.0000 </r>
       <r>   -2.4285    0.0000 </r>
       <r>   -2.4230    0.0000 </r>
       <r>   -2.0732    0.0000 </r>
       <r>   -2.0656    0.0000 </r>
       <r>   -1.9355    0.0000 </r>
       <r>   -1.4096    0.0000 </r>
       <r>   -1.4082    0.0000 </r>
       <r>   -0.9711    0.0000 </r>
       <r>   -0.7658    0.0000 </r>
       <r>   -0.5324    0.0000 </r>
       <r>   -0.5304    0.0000 </r>
       <r>   -0.4359    0.0000 </r>
       <r>   -0.2697    0.0000 </r>
       <r>   -0.0169    0.0000 </r>
       <r>   -0.0124    0.0000 </r>
       <r>    0.1906    0.0000 </r>
       <r>    0.1962    0.0000 </r>
       <r>    0.2012    0.0000 </r>
       <r>    0.2374    0.0000 </r>
       <r>    0.3888    0.0000 </r>
       <r>    0.4335    0.0000 </r>
       <r>    0.4447    0.0000 </r>
       <r>    0.4921    0.0000 </r>
       <r>    0.4937    0.0000 </r>
       <r>    0.5829    0.0000 </r>
       <r>    0.5832    0.0000 </r>
       <r>    0.5926    0.0000 </r>
       <r>    0.6787    0.0000 </r>
       <r>    0.6840    0.0000 </r>
       <r>    0.7538    0.0000 </r>
       <r>    0.8264    0.0000 </r>
       <r>    0.8281    0.0000 </r>
       <r>    0.8424    0.0000 </r>
       <r>    0.8458    0.0000 </r>
       <r>    0.8879    0.0000 </r>
       <r>    0.9537    0.0000 </r>
       <r>    0.9703    0.0000 </r>
       <r>    1.1167    0.0000 </r>
       <r>    1.1217    0.0000 </r>
       <r>    1.1294    0.0000 </r>
       <r>    1.1635    0.0000 </r>
       <r>    1.1688    0.0000 </r>
       <r>    1.1694    0.0000 </r>
       <r>    1.3109    0.0000 </r>
       <r>    1.3348    0.0000 </r>
       <r>    1.3412    0.0000 </r>
       <r>    1.3455    0.0000 </r>
       <r>    1.3654    0.0000 </r>
       <r>    1.4110    0.0000 </r>
       <r>    1.4357    0.0000 </r>
       <r>    1.4420    0.0000 </r>
       <r>    1.5100    0.0000 </r>
       <r>    1.5127    0.0000 </r>
       <r>    1.5639    0.0000 </r>
       <r>    1.6228    0.0000 </r>
      </set>
      <set comment="kpoint 3">
       <r>  -26.9298    1.0000 </r>
       <r>  -26.9291    1.0000 </r>
       <r>  -26.9290    1.0000 </r>
       <r>  -26.7762    1.0000 </r>
       <r>  -26.7759    1.0000 </r>
       <r>  -26.7756    1.0000 </r>
       <r>  -25.7721    1.0000 </r>
       <r>  -25.7679    1.0000 </r>
       <r>  -25.7585    1.0000 </r>
       <r>  -25.7552    1.0000 </r>
       <r>  -25.7538    1.0000 </r>
       <r>  -25.7528    1.0000 </r>
       <r>  -24.4121    1.0000 </r>
       <r>  -24.4114    1.0000 </r>
       <r>  -24.4105    1.0000 </r>
       <r>  -23.6743    1.0000 </r>
       <r>  -23.6718    1.0000 </r>
       <r>  -23.6688    1.0000 </r>
       <r>  -22.8972    1.0000 </r>
       <r>  -22.8823    1.0000 </r>
       <r>  -22.8794    1.0000 </r>
       <r>  -22.1148    1.0000 </r>
       <r>  -22.0626    1.0000 </r>
       <r>  -22.0605    1.0000 </r>
       <r>  -21.5800    1.0000 </r>
       <r>  -21.5550    1.0000 </r>
       <r>  -19.4931    1.0000 </r>
       <r>  -19.4921    1.0000 </r>
       <r>  -19.2098    1.0000 </r>
       <r>  -19.2045    1.0000 </r>
       <r>  -18.9841    1.0000 </r>
       <r>  -18.5739    1.0000 </r>
       <r>  -18.5719    1.0000 </r>
       <r>  -18.0164    1.0000 </r>
       <r>  -17.9759    1.0000 </r>
       <r>  -17.9750    1.0000 </r>
       <r>  -17.1030    1.0000 </r>
       <r>  -16.9704    1.0000 </r>
       <r>  -16.9672    1.0000 </r>
       <r>  -16.8615    1.0000 </r>
       <r>  -16.8313    1.0000 </r>
       <r>  -16.8306    1.0000 </r>
       <r>  -15.8583    1.0000 </r>
       <r>  -15.8575    1.0000 </r>
       <r>  -15.5146    1.0000 </r>
       <r>  -15.4185    1.0000 </r>
       <r>  -15.4110    1.0000 </r>
       <r>  -15.3047    1.0000 </r>
       <r>  -15.2545    1.0000 </r>
       <r>  -15.2535    1.0000 </r>
       <r>  -14.7864    1.0000 </r>
       <r>  -14.7749    1.0000 </r>
       <r>  -14.6465    1.0000 </r>
       <r>  -14.3363    1.0000 </r>
       <r>  -13.7959    1.0000 </r>
       <r>  -13.7949    1.0000 </r>
       <r>  -13.5460    1.0000 </r>
       <r>  -13.4809    1.0000 </r>
       <r>  -13.4795    1.0000 </r>
       <r>  -13.4344    1.0000 </r>
       <r>  -13.4340    1.0000 </r>
       <r>  -13.0726    1.0000 </r>
       <r>  -12.9635    1.0000 </r>
       <r>  -12.6592    1.0000 </r>
       <r>  -12.5391    1.0000 </r>
       <r>  -12.5356    1.0000 </r>
       <r>  -12.3366    1.0000 </r>
       <r>  -12.3352    1.0000 </r>
       <r>  -12.2520    1.0000 </r>
       <r>  -11.9962    1.0000 </r>
       <r>  -11.8722    1.0000 </r>
       <r>  -11.8717    1.0000 </r>
       <r>  -11.8349    1.0000 </r>
       <r>  -11.7948    1.0000 </r>
       <r>  -11.6968    1.0000 </r>
       <r>  -11.6775    1.0000 </r>
       <r>  -11.6754    1.0000 </r>
       <r>  -11.3143    1.0000 </r>
       <r>  -11.2204    1.0000 </r>
       <r>  -11.1508    1.0000 </r>
       <r>  -11.1498    1.0000 </r>
       <r>  -11.0763    1.0000 </r>
       <r>  -11.0754    1.0000 </r>
       <r>  -11.0608    1.0000 </r>
       <r>  -11.0602    1.0000 </r>
       <r>  -11.0572    1.0000 </r>
       <r>  -10.3703    1.0000 </r>
       <r>  -10.3625    1.0000 </r>
       <r>  -10.3603    1.0000 </r>
       <r>  -10.3259    1.0000 </r>
       <r>  -10.3104    1.0000 </r>
       <r>  -10.3080    1.0000 </r>
       <r>  -10.2166    1.0000 </r>
       <r>  -10.2138    1.0000 </r>
       <r>  -10.1672    1.0000 </r>
       <r>  -10.1416    1.0000 </r>
       <r>  -10.1384    1.0000 </r>
       <r>  -10.1366    1.0000 </r>
       <r>   -9.8765    1.0000 </r>
       <r>   -9.7805    1.0000 </r>
       <r>   -9.7783    1.0000 </r>
       <r>   -9.7589    1.0000 </r>
       <r>   -9.7566    1.0000 </r>
       <r>   -9.6535    1.0000 </r>
       <r>   -9.6318    1.0000 </r>
       <r>   -9.5516    1.0000 </r>
       <r>   -9.5501    1.0000 </r>
       <r>   -9.1939    1.0000 </r>
       <r>   -8.7582    1.0000 </r>
       <r>   -8.7575    1.0000 </r>
       <r>   -8.7250    1.0000 </r>
       <r>   -8.7238    1.0000 </r>
       <r>   -8.7075    1.0000 </r>
       <r>   -8.4985    1.0000 </r>
       <r>   -8.4979    1.0000 </r>
       <r>   -8.4917    1.0000 </r>
       <r>   -8.3678    1.0000 </r>
       <r>   -8.3647    1.0000 </r>
       <r>   -8.2777    1.0000 </r>
       <r>   -8.2750    1.0000 </r>
       <r>   -8.2741    1.0000 </r>
       <r>   -8.2076    1.0000 </r>
       <r>   -8.1404    1.0000 </r>
       <r>   -8.1381    1.0000 </r>
       <r>   -8.0091    1.0000 </r>
       <r>   -7.3248    1.0000 </r>
       <r>   -7.3236    1.0000 </r>
       <r>   -7.2891    1.0000 </r>
       <r>   -6.9444    1.0000 </r>
       <r>   -6.9432    1.0000 </r>
       <r>   -6.9299    1.0000 </r>
       <r>   -6.7423    1.0000 </r>
       <r>   -6.7405    1.0000 </r>
       <r>   -6.6860    1.0000 </r>
       <r>   -6.6843    1.0000 </r>
       <r>   -6.6704    1.0000 </r>
       <r>   -6.5664    1.0000 </r>
       <r>   -6.5441    1.0000 </r>
       <r>   -6.5383    1.0000 </r>
       <r>   -6.4208    1.0000 </r>
       <r>   -6.4184    1.0000 </r>
       <r>   -6.2958    1.0000 </r>
       <r>   -6.2294    1.0000 </r>
       <r>   -6.2241    1.0000 </r>
       <r>   -5.7373    1.0000 </r>
       <r>   -5.5125    1.0000 </r>
       <r>   -5.5090    1.0000 </r>
       <r>   -5.4394    1.0000 </r>
       <r>   -5.2440    1.0000 </r>
       <r>   -5.2409    1.0000 </r>
       <r>   -4.5795    1.0000 </r>
       <r>   -4.5761    1.0000 </r>
       <r>   -4.5718    1.0000 </r>
       <r>   -2.4283    0.0000 </r>
       <r>   -2.4224    0.0000 </r>
       <r>   -2.0781    0.0000 </r>
       <r>   -2.0676    0.0000 </r>
       <r>   -1.9279    0.0000 </r>
       <r>   -1.4110    0.0000 </r>
       <r>   -1.4085    0.0000 </r>
       <r>   -0.9708    0.0000 </r>
       <r>   -0.7697    0.0000 </r>
       <r>   -0.5324    0.0000 </r>
       <r>   -0.5252    0.0000 </r>
       <r>   -0.4351    0.0000 </r>
       <r>   -0.2711    0.0000 </r>
       <r>   -0.0162    0.0000 </r>
       <r>   -0.0128    0.0000 </r>
       <r>    0.1867    0.0000 </r>
       <r>    0.1960    0.0000 </r>
       <r>    0.2023    0.0000 </r>
       <r>    0.2380    0.0000 </r>
       <r>    0.3896    0.0000 </r>
       <r>    0.4351    0.0000 </r>
       <r>    0.4466    0.0000 </r>
       <r>    0.4902    0.0000 </r>
       <r>    0.4924    0.0000 </r>
       <r>    0.5827    0.0000 </r>
       <r>    0.5833    0.0000 </r>
       <r>    0.5942    0.0000 </r>
       <r>    0.6781    0.0000 </r>
       <r>    0.6841    0.0000 </r>
       <r>    0.7554    0.0000 </r>
       <r>    0.8161    0.0000 </r>
       <r>    0.8194    0.0000 </r>
       <r>    0.8456    0.0000 </r>
       <r>    0.8522    0.0000 </r>
       <r>    0.8936    0.0000 </r>
       <r>    0.9570    0.0000 </r>
       <r>    0.9675    0.0000 </r>
       <r>    1.1185    0.0000 </r>
       <r>    1.1237    0.0000 </r>
       <r>    1.1254    0.0000 </r>
       <r>    1.1658    0.0000 </r>
       <r>    1.1697    0.0000 </r>
       <r>    1.1720    0.0000 </r>
       <r>    1.2995    0.0000 </r>
       <r>    1.3326    0.0000 </r>
       <r>    1.3411    0.0000 </r>
       <r>    1.3527    0.0000 </r>
       <r>    1.3683    0.0000 </r>
       <r>    1.4050    0.0000 </r>
       <r>    1.4385    0.0000 </r>
       <r>    1.4474    0.0000 </r>
       <r>    1.5100    0.0000 </r>
       <r>    1.5114    0.0000 </r>
       <r>    1.5618    0.0000 </r>
       <r>    1.6235    0.0000 </r>
      </set>
      <set comment="kpoint 4">
       <r>  -26.9298    1.0000 </r>
       <r>  -26.9291    1.0000 </r>
       <r>  -26.9290    1.0000 </r>
       <r>  -26.7762    1.0000 </r>
       <r>  -26.7759    1.0000 </r>
       <r>  -26.7756    1.0000 </r>
       <r>  -25.7721    1.0000 </r>
       <r>  -25.7679    1.0000 </r>
       <r>  -25.7585    1.0000 </r>
       <r>  -25.7552    1.0000 </r>
       <r>  -25.7538    1.0000 </r>
       <r>  -25.7528    1.0000 </r>
       <r>  -24.4121    1.0000 </r>
       <r>  -24.4114    1.0000 </r>
       <r>  -24.4105    1.0000 </r>
       <r>  -23.6743    1.0000 </r>
       <r>  -23.6718    1.0000 </r>
       <r>  -23.6688    1.0000 </r>
       <r>  -22.8970    1.0000 </r>
       <r>  -22.8824    1.0000 </r>
       <r>  -22.8794    1.0000 </r>
       <r>  -22.1144    1.0000 </r>
       <r>  -22.0630    1.0000 </r>
[...]
       <r>   -25.9495     0.0000    12.0000 </r>
       <r>   -25.8448     0.0000    12.0000 </r>
       <r>   -25.7401   113.0274    23.8336 </r>
       <r>   -25.6354     0.0000    24.0000 </r>
       <r>   -25.5307     0.0000    24.0000 </r>
       <r>   -25.4260     0.0000    24.0000 </r>
       <r>   -25.3213     0.0000    24.0000 </r>
       <r>   -25.2166     0.0000    24.0000 </r>
       <r>   -25.1119     0.0000    24.0000 </r>
       <r>   -25.0072     0.0000    24.0000 </r>
       <r>   -24.9025     0.0000    24.0000 </r>
       <r>   -24.7978     0.0000    24.0000 </r>
       <r>   -24.6931     0.0000    24.0000 </r>
       <r>   -24.5884     0.0000    24.0000 </r>
       <r>   -24.4837     0.0000    24.0000 </r>
       <r>   -24.3790    57.3082    30.0000 </r>
       <r>   -24.2743     0.0000    30.0000 </r>
       <r>   -24.1696     0.0000    30.0000 </r>
       <r>   -24.0649     0.0000    30.0000 </r>
       <r>   -23.9602     0.0000    30.0000 </r>
       <r>   -23.8555     0.0000    30.0000 </r>
       <r>   -23.7508     0.0000    30.0000 </r>
       <r>   -23.6461    57.2925    35.9983 </r>
       <r>   -23.5415     0.0000    36.0000 </r>
       <r>   -23.4368     0.0000    36.0000 </r>
       <r>   -23.3321     0.0000    36.0000 </r>
       <r>   -23.2274     0.0000    36.0000 </r>
       <r>   -23.1227     0.0000    36.0000 </r>
       <r>   -23.0180     0.0000    36.0000 </r>
       <r>   -22.9133     0.0764    36.0080 </r>
       <r>   -22.8086    35.3387    42.0000 </r>
       <r>   -22.7039     0.0000    42.0000 </r>
       <r>   -22.5992     0.0000    42.0000 </r>
       <r>   -22.4945     0.0000    42.0000 </r>
       <r>   -22.3898     0.0000    42.0000 </r>
       <r>   -22.2851     0.0000    42.0000 </r>
       <r>   -22.1804     0.0000    42.0000 </r>
       <r>   -22.0757    29.2624    45.0637 </r>
       <r>   -21.9710     0.0000    48.0000 </r>
       <r>   -21.8663     0.0000    48.0000 </r>
       <r>   -21.7616     0.0000    48.0000 </r>
       <r>   -21.6569     0.0000    48.0000 </r>
       <r>   -21.5522    35.1230    51.6773 </r>
       <r>   -21.4475     0.0000    52.0000 </r>
       <r>   -21.3428     0.0000    52.0000 </r>
       <r>   -21.2381     0.0000    52.0000 </r>
       <r>   -21.1334     0.0000    52.0000 </r>
       <r>   -21.0287     0.0000    52.0000 </r>
       <r>   -20.9240     0.0000    52.0000 </r>
       <r>   -20.8193     0.0000    52.0000 </r>
       <r>   -20.7146     0.0000    52.0000 </r>
       <r>   -20.6099     0.0000    52.0000 </r>
       <r>   -20.5052     0.0000    52.0000 </r>
       <r>   -20.4005     0.0000    52.0000 </r>
       <r>   -20.2959     0.0000    52.0000 </r>
       <r>   -20.1912     0.0000    52.0000 </r>
       <r>   -20.0865     0.0000    52.0000 </r>
       <r>   -19.9818     0.0000    52.0000 </r>
       <r>   -19.8771     0.0000    52.0000 </r>
       <r>   -19.7724     0.0000    52.0000 </r>
       <r>   -19.6677     0.0000    52.0000 </r>
       <r>   -19.5630     0.0000    52.0000 </r>
       <r>   -19.4583    26.5565    54.7804 </r>
       <r>   -19.3536    15.1558    56.6534 </r>
       <r>   -19.2489     4.5062    57.5385 </r>
       <r>   -19.1442    21.9682    60.0000 </r>
       <r>   -19.0395     0.0000    60.0000 </r>
       <r>   -18.9348     4.5803    60.4795 </r>
       <r>   -18.8301     3.5857    60.9754 </r>
       <r>   -18.7254     8.5598    62.1962 </r>
       <r>   -18.6207     8.2362    63.3290 </r>
       <r>   -18.5160    23.8784    66.0000 </r>
       <r>   -18.4113     0.0000    66.0000 </r>
       <r>   -18.3066     0.0000    66.0000 </r>
       <r>   -18.2019     0.0000    66.0000 </r>
       <r>   -18.0972     0.0000    66.0000 </r>
       <r>   -17.9925    18.5770    67.9450 </r>
       <r>   -17.8878     0.0000    72.0000 </r>
       <r>   -17.7831     0.0000    72.0000 </r>
       <r>   -17.6784     0.0000    72.0000 </r>
       <r>   -17.5737     0.0000    72.0000 </r>
       <r>   -17.4690     0.0000    72.0000 </r>
       <r>   -17.3643     0.0000    72.0000 </r>
       <r>   -17.2596     0.0000    72.0000 </r>
       <r>   -17.1550     0.0000    72.0000 </r>
       <r>   -17.0503    14.8783    73.5577 </r>
       <r>   -16.9456    34.6843    77.9980 </r>
       <r>   -16.8409    22.9238    80.4000 </r>
       <r>   -16.7362     0.0000    84.0000 </r>
       <r>   -16.6315     0.0000    84.0000 </r>
       <r>   -16.5268     0.0000    84.0000 </r>
       <r>   -16.4221     0.0000    84.0000 </r>
       <r>   -16.3174     0.0000    84.0000 </r>
       <r>   -16.2127     0.0000    84.0000 </r>
       <r>   -16.1080     0.0000    84.0000 </r>
       <r>   -16.0033     0.0000    84.0000 </r>
       <r>   -15.8986     0.0000    84.0000 </r>
       <r>   -15.7939    30.1995    87.1618 </r>
       <r>   -15.6892    12.1081    88.9677 </r>
       <r>   -15.5845     3.5920    89.5094 </r>
       <r>   -15.4798     3.5019    90.0000 </r>
       <r>   -15.3751    22.5744    92.3635 </r>
       <r>   -15.2704    33.8031    96.0391 </r>
       <r>   -15.1657     5.1673    98.8743 </r>
       <r>   -15.0610     8.5754    99.8978 </r>
       <r>   -14.9563     8.1973   101.0249 </r>
       <r>   -14.8516     3.3770   101.4869 </r>
       <r>   -14.7469    22.9225   103.9999 </r>
       <r>   -14.6422     1.7726   104.1856 </r>
       <r>   -14.5375     4.2534   104.8120 </r>
       <r>   -14.4328    12.2703   106.2513 </r>
       <r>   -14.3281    10.4696   107.9628 </r>
       <r>   -14.2234     0.0000   108.0000 </r>
       <r>   -14.1187     0.0000   108.0000 </r>
       <r>   -14.0141     0.0000   108.0000 </r>
       <r>   -13.9094     0.0000   108.0000 </r>
       <r>   -13.8047     2.5819   108.2703 </r>
       <r>   -13.7000    11.9226   111.6816 </r>
       <r>   -13.5953    11.3923   113.2927 </r>
       <r>   -13.4906    13.5727   114.9210 </r>
       <r>   -13.3859    45.2097   122.0000 </r>
       <r>   -13.2812     0.0000   122.0000 </r>
       <r>   -13.1765     0.0000   122.0000 </r>
       <r>   -13.0718     1.8728   122.1961 </r>
       <r>   -12.9671    27.6622   125.6295 </r>
       <r>   -12.8624     0.0000   126.0000 </r>
       <r>   -12.7577     0.0000   126.0000 </r>
       <r>   -12.6530     3.7098   126.3884 </r>
       <r>   -12.5483    24.9736   129.5813 </r>
       <r>   -12.4436     0.0000   132.0000 </r>
       <r>   -12.3389    11.1599   133.1684 </r>
       <r>   -12.2342    28.9535   137.9980 </r>
       <r>   -12.1295     0.0000   138.0000 </r>
       <r>   -12.0248     0.0001   138.0000 </r>
       <r>   -11.9201    26.0450   140.7268 </r>
       <r>   -11.8154    36.8871   145.1953 </r>
       <r>   -11.7107     0.1391   148.0146 </r>
       <r>   -11.6060    38.2054   154.0000 </r>
       <r>   -11.5013     0.0000   154.0000 </r>
       <r>   -11.3966     0.0000   154.0000 </r>
       <r>   -11.2919    12.5338   155.3123 </r>
       <r>   -11.1872    14.9635   158.0000 </r>
       <r>   -11.0825    57.0168   163.9695 </r>
       <r>   -10.9778    19.1004   172.0000 </r>
       <r>   -10.8732     0.0000   172.0000 </r>
       <r>   -10.7685     0.0000   172.0000 </r>
       <r>   -10.6638     0.0000   172.0000 </r>
       <r>   -10.5591     0.0000   172.0000 </r>
       <r>   -10.4544     0.0000   172.0000 </r>
       <r>   -10.3497    52.8626   177.5345 </r>
       <r>   -10.2450    42.3451   184.0001 </r>
       <r>   -10.1403    78.5779   192.2270 </r>
       <r>   -10.0356     0.0000   196.0000 </r>
       <r>    -9.9309     0.0000   196.0000 </r>
       <r>    -9.8262     8.2543   196.8642 </r>
       <r>    -9.7215    84.3373   206.2965 </r>
       <r>    -9.6168    36.3769   210.7752 </r>
       <r>    -9.5121    25.1520   214.0000 </r>
       <r>    -9.4074     0.0000   214.0000 </r>
       <r>    -9.3027     0.0000   214.0000 </r>
       <r>    -9.1980     0.7880   214.0825 </r>
       <r>    -9.0933     4.0736   214.7932 </r>
       <r>    -8.9886     8.0147   215.7724 </r>
       <r>    -8.8839     8.9725   216.9394 </r>
       <r>    -8.7792     4.3658   217.5238 </r>
       <r>    -8.6745    70.6798   226.0000 </r>
       <r>    -8.5698     0.0000   226.0000 </r>
       <r>    -8.4651    57.3053   231.9997 </r>
       <r>    -8.3604    18.1057   233.8956 </r>
       <r>    -8.2557    66.4140   241.4533 </r>
       <r>    -8.1510    17.7076   244.1206 </r>
       <r>    -8.0463    22.4951   249.1885 </r>
       <r>    -7.9416     4.7756   250.0000 </r>
       <r>    -7.8369     0.0000   250.0000 </r>
       <r>    -7.7322     0.0000   250.0000 </r>
       <r>    -7.6276     0.0000   250.0000 </r>
       <r>    -7.5229     0.0000   250.0000 </r>
       <r>    -7.4182     0.0000   250.0000 </r>
       <r>    -7.3135    28.8071   253.0160 </r>
       <r>    -7.2088     0.0000   256.0000 </r>
       <r>    -7.1041     0.0000   256.0000 </r>
       <r>    -6.9994     0.0000   256.0000 </r>
       <r>    -6.8947    57.3084   262.0000 </r>
       <r>    -6.7900     0.0000   262.0000 </r>
       <r>    -6.6853    55.9994   267.8630 </r>
       <r>    -6.5806    16.2222   273.6984 </r>
       <r>    -6.4759    28.0060   276.9321 </r>
       <r>    -6.3712    39.4789   282.0000 </r>
       <r>    -6.2665    19.0771   283.9973 </r>
       <r>    -6.1618    25.4703   288.0000 </r>
       <r>    -6.0571     0.0000   288.0000 </r>
       <r>    -5.9524     0.0000   288.0000 </r>
       <r>    -5.8477     0.0000   288.0000 </r>
       <r>    -5.7430     0.6669   288.0698 </r>
       <r>    -5.6383    16.2269   290.3322 </r>
       <r>    -5.5336     6.4736   291.6444 </r>
       <r>    -5.4289     3.7949   294.2640 </r>
       <r>    -5.3242    10.9662   295.6481 </r>
       <r>    -5.2195    36.5939   299.9979 </r>
       <r>    -5.1148     0.0000   300.0000 </r>
       <r>    -5.0101     0.0000   300.0000 </r>
       <r>    -4.9054     0.0000   300.0000 </r>
       <r>    -4.8007     0.0000   300.0000 </r>
       <r>    -4.6960     0.0000   300.0000 </r>
       <r>    -4.5913     1.1950   300.1251 </r>
       <r>    -4.4867     0.0000   306.0000 </r>
       <r>    -4.3820     0.0000   306.0000 </r>
       <r>    -4.2773     0.0000   306.0000 </r>
       <r>    -4.1726     0.0000   306.0000 </r>
       <r>    -4.0679     0.0000   306.0000 </r>
       <r>    -3.9632     0.0000   306.0000 </r>
       <r>    -3.8585     0.0000   306.0000 </r>
       <r>    -3.7538     0.0000   306.0000 </r>
       <r>    -3.6491     0.0000   306.0000 </r>
       <r>    -3.5444     0.0000   306.0000 </r>
       <r>    -3.4397     0.0000   306.0000 </r>
       <r>    -3.3350     0.0000   306.0000 </r>
       <r>    -3.2303     0.0000   306.0000 </r>
       <r>    -3.1256     0.0000   306.0000 </r>
       <r>    -3.0209     0.0000   306.0000 </r>
       <r>    -2.9162     0.0000   306.0000 </r>
       <r>    -2.8115     0.0000   306.0000 </r>
       <r>    -2.7068     0.0000   306.0000 </r>
       <r>    -2.6021     0.0000   306.0000 </r>
       <r>    -2.4974     0.0000   306.0000 </r>
       <r>    -2.3927    25.8449   308.7059 </r>
       <r>    -2.2880    13.1334   310.3417 </r>
       <r>    -2.1833     5.4715   311.3395 </r>
       <r>    -2.0786     5.6526   312.0251 </r>
       <r>    -1.9739     0.0000   314.0000 </r>
       <r>    -1.8692     3.9287   314.4113 </r>
       <r>    -1.7645     2.6720   314.7797 </r>
       <r>    -1.6598     6.7028   315.5684 </r>
       <r>    -1.5551     6.8479   316.4836 </r>
       <r>    -1.4504     4.5648   317.4113 </r>
       <r>    -1.3458    22.6050   320.0000 </r>
       <r>    -1.2411     0.0000   320.0000 </r>
       <r>    -1.1364     0.0000   320.0000 </r>
       <r>    -1.0317     0.0000   320.0000 </r>
       <r>    -0.9270    18.6295   321.9504 </r>
       <r>    -0.8223     8.6885   323.4763 </r>
       <r>    -0.7176     3.5022   324.0000 </r>
       <r>    -0.6129     0.0000   324.0000 </r>
       <r>    -0.5082    21.6870   326.2706 </r>
       <r>    -0.4035    13.9136   327.8567 </r>
       <r>    -0.2988    16.5925   330.4038 </r>
       <r>    -0.1941     9.7732   331.8566 </r>
       <r>    -0.0894     7.7381   332.8102 </r>
       <r>     0.0153    28.3350   335.9999 </r>
       <r>     0.1200     9.5959   337.0047 </r>
       <r>     0.2247    29.4400   340.5823 </r>
       <r>     0.3294    25.8047   344.1684 </r>
       <r>     0.4341    16.3962   346.6166 </r>
       <r>     0.5388    48.9008   353.8198 </r>
       <r>     0.6435    57.9353   361.0656 </r>
       <r>     0.7482    50.3730   366.7739 </r>
       <r>     0.8529    37.0735   371.4815 </r>
       <r>     0.9576    41.5382   376.9822 </r>
       <r>     1.0623    23.5958   380.4371 </r>
       <r>     1.1670    55.8038   386.9425 </r>
       <r>     1.2717    40.6568   393.5233 </r>
       <r>     1.3764    46.3772   400.3556 </r>
       <r>     1.4811    51.2240   407.1963 </r>
       <r>     1.5858    49.3492   414.3001 </r>
       <r>     1.6905     4.7756   416.0000 </r>
       <r>     1.7951     0.0000   416.0000 </r>
       <r>     1.8998     0.0000   416.0000 </r>
       <r>     2.0045     0.0000   416.0000 </r>
       <r>     2.1092     0.0000   416.0000 </r>
       <r>     2.2139     0.0000   416.0000 </r>
       <r>     2.3186     0.0000   416.0000 </r>
       <r>     2.4233     0.0000   416.0000 </r>
       <r>     2.5280     0.0000   416.0000 </r>
       <r>     2.6327     0.0000   416.0000 </r>
       <r>     2.7374     0.0000   416.0000 </r>
       <r>     2.8421     0.0000   416.0000 </r>
       <r>     2.9468     0.0000   416.0000 </r>
       <r>     3.0515     0.0000   416.0000 </r>
      </set>
     </set>
    </array>
   </total>
  </dos>
 </calculation>
 <structure name="finalpos" >
  <crystal>
   <varray name="basis" >
    <v>      21.61294659       0.03972979       0.00000000 </v>
    <v>     -10.77220190      18.65892830       0.00000000 </v>
    <v>       0.00000000       0.00000000      20.00000000 </v>
   </varray>
   <i name="volume">   8074.04796063 </i>
   <varray name="rec_basis" >
    <v>       0.04621951       0.02668352       0.00000000 </v>
    <v>      -0.00009841       0.05353683       0.00000000 </v>
    <v>       0.00000000       0.00000000       0.05000000 </v>
   </varray>
  </crystal>
  <varray name="positions" >
   <v>       0.48742236       0.83661126       0.59611475 </v>
   <v>       0.32907351       0.49616337       0.59280084 </v>
   <v>       0.14959996       0.65607762       0.59573836 </v>
   <v>       0.49042801       0.15704041       0.39546135 </v>
   <v>       0.65074348       0.49724199       0.39749556 </v>
   <v>       0.82989469       0.33648855       0.39672892 </v>
   <v>       0.59863552       0.08843377       0.57139419 </v>
   <v>       0.47212890       0.38659617       0.57166537 </v>
   <v>       0.89714112       0.51379234       0.57281572 </v>
   <v>       0.38056642       0.90342378       0.41615889 </v>
   <v>       0.50632341       0.60633995       0.41728455 </v>
   <v>       0.08185511       0.48083692       0.41678870 </v>
   <v>       0.50482849       0.97251386       0.55299136 </v>
   <v>       0.56989353       0.13679332       0.45669710 </v>
   <v>       0.44993652       0.48069938       0.55333754 </v>
   <v>       0.55119388       0.41711967       0.45828190 </v>
   <v>       0.01310798       0.53652523       0.55384559 </v>
   <v>       0.84867735       0.43526192       0.45899803 </v>
   <v>       0.47435160       0.01947547       0.43450589 </v>
   <v>       0.40921716       0.85532590       0.53109981 </v>
   <v>       0.52914210       0.51273261       0.43601567 </v>
   <v>       0.42810417       0.57636011       0.53132036 </v>
   <v>       0.96588376       0.45767469       0.43614116 </v>
   <v>       0.13014026       0.55828388       0.53125277 </v>
   <v>       0.34523365       0.61257837       0.57023918 </v>
   <v>       0.27210733       0.58988490       0.57057936 </v>
   <v>       0.24906968       0.64004351       0.57055981 </v>
   <v>       0.29943316       0.71335624       0.57133646 </v>
   <v>       0.39512213       0.68572052       0.57124171 </v>
   <v>       0.36585341       0.55553369       0.56753114 </v>
   <v>       0.17170704       0.61965608       0.56870953 </v>
   <v>       0.63386768       0.38042734       0.41957231 </v>
   <v>       0.70695512       0.40295726       0.41933863 </v>
   <v>       0.72993781       0.35273722       0.41961898 </v>
   <v>       0.67946381       0.27944592       0.41863033 </v>
   <v>       0.58390630       0.30729579       0.41856023 </v>
   <v>       0.61355286       0.43774452       0.42238073 </v>
   <v>       0.80734568       0.37319762       0.42234673 </v>
   <v>       0.52763656       0.06479723       0.47380825 </v>
   <v>       0.54286872       0.03996757       0.53369979 </v>
   <v>       0.61240893       0.06117046       0.63225477 </v>
   <v>       0.52092334       0.45904763       0.47510768 </v>
   <v>       0.47984916       0.44295088       0.53436316 </v>
   <v>       0.42903103       0.37085531       0.63126398 </v>
   <v>       0.92064760       0.46563610       0.47562800 </v>
   <v>       0.94560813       0.50646886       0.53507130 </v>
   <v>       0.92443912       0.55624917       0.63285643 </v>
   <v>       0.37236521       0.73633774       0.57098523 </v>
   <v>       0.42906356       0.81397529       0.56901329 </v>
   <v>       0.60652246       0.25654644       0.41880497 </v>
   <v>       0.54950338       0.17896428       0.42083715 </v>
   <v>       0.43628424       0.95202119       0.45381978 </v>
   <v>       0.45144835       0.92723543       0.51379830 </v>
   <v>       0.36626782       0.93049951       0.35546845 </v>
   <v>       0.49906568       0.55034678       0.45488268 </v>
   <v>       0.45825371       0.53442255       0.51428272 </v>
   <v>       0.54911833       0.62179803       0.35750577 </v>
   <v>       0.03338492       0.48782747       0.45482917 </v>
   <v>       0.05828105       0.52838513       0.51445018 </v>
   <v>       0.05426876       0.43772276       0.35713318 </v>
   <v>       0.27976223       0.75118914       0.57330678 </v>
   <v>       0.45242080       0.70535649       0.57324144 </v>
   <v>       0.23449697       0.53239865       0.57195625 </v>
   <v>       0.69913405       0.24160950       0.41673220 </v>
   <v>       0.52660728       0.28766661       0.41655931 </v>
   <v>       0.74460954       0.46043042       0.41791322 </v>
   <v>       0.66002660       0.10658211       0.65377096 </v>
   <v>       0.56689053       0.04235591       0.66662444 </v>
   <v>       0.62160025       0.01644168       0.62144863 </v>
   <v>       0.61467135       0.16324320       0.48509704 </v>
   <v>       0.42632697       0.32259469       0.65213800 </v>
   <v>       0.45418200       0.41551910       0.66686500 </v>
   <v>       0.37558086       0.36162893       0.61894010 </v>
   <v>       0.53269906       0.37191062       0.48629292 </v>
   <v>       0.87908997       0.55887710       0.65400591 </v>
   <v>       0.94370268       0.53044267       0.66800081 </v>
   <v>       0.96868051       0.60993690       0.62103176 </v>
   <v>       0.82191012       0.45330446       0.48746721 </v>
   <v>       0.31830606       0.88510985       0.33438495 </v>
   <v>       0.35739549       0.97540275       0.36642532 </v>
   <v>       0.41137009       0.94896681       0.32063599 </v>
   <v>       0.36494350       0.82836658       0.50215989 </v>
   <v>       0.55150847       0.66981624       0.33638403 </v>
   <v>       0.60270418       0.63131912       0.36967112 </v>
   <v>       0.52392815       0.57686661       0.32218546 </v>
   <v>       0.44612891       0.62133973       0.50305198 </v>
   <v>       0.09963325       0.43525624       0.33579771 </v>
   <v>       0.01040578       0.38400684       0.36951426 </v>
   <v>       0.03438950       0.46287677       0.32189484 </v>
   <v>       0.15684987       0.54053932       0.50231049 </v>
  </varray>
 </structure>
</modeling>
