<?xml version="1.0" encoding="ISO-8859-1"?>
<modeling>
 <generator>
  <i name="program" type="string">vasp </i>
  <i name="version" type="string">5.4.4.18Apr17-6-g9f103f2a35  </i>
  <i name="subversion" type="string">(build Jun 07 2020 16:50:00) complex            parallel </i>
  <i name="platform" type="string">LinuxIFC </i>
  <i name="date" type="string">2023 02 18 </i>
  <i name="time" type="string">12:04:36 </i>
 </generator>
 <incar>
  <i type="string" name="SYSTEM">Simulation for cell shape cell volume r</i>
  <i type="int" name="ISTART">     1</i>
  <i type="string" name="PREC">high</i>
  <i type="string" name="ALGO">48</i>
  <i type="int" name="ICHARG">    11</i>
  <i type="int" name="NELM">   200</i>
  <i type="int" name="IBRION">    -1</i>
  <i name="EDIFF">      0.00001000</i>
  <i name="EDIFFG">     -0.01000000</i>
  <i type="int" name="NSW">     0</i>
  <i type="int" name="ISIF">     2</i>
  <i name="ENCUT">    500.00000000</i>
  <i name="POTIM">      0.30000000</i>
  <i type="string" name="LREAL">A</i>
  <i type="int" name="ISMEAR">     0</i>
  <i name="SIGMA">      0.01000000</i>
  <i type="int" name="NWRITE">     0</i>
  <i type="logical" name="LWAVE"> F  </i>
  <i type="logical" name="LCHARG"> F  </i>
  <v type="int" name="KPOINT_BSE">    -1     0     0     0</v>
  <i type="int" name="NELM">   200</i>
  <i type="string" name="GGA">PE</i>
 </incar>
 <structure name="primitive_cell" >
  <crystal>
   <varray name="basis" >
    <v>      29.53054240      -0.09895526       0.00000000 </v>
    <v>     -14.85159669      25.76638549       0.00000000 </v>
    <v>       0.00000000       0.00000000      20.00000000 </v>
   </varray>
   <i name="volume">  15188.51390911 </i>
   <varray name="rec_basis" >
    <v>       0.03392878       0.01955635       0.00000000 </v>
    <v>       0.00013030       0.03888536       0.00000000 </v>
    <v>       0.00000000       0.00000000       0.05000000 </v>
   </varray>
  </crystal>
  <varray name="positions" >
   <v>       0.27796181      -0.42884327      -0.47877605 </v>
   <v>       0.30308677      -0.38668374      -0.47846477 </v>
   <v>       0.27984264      -0.35518834      -0.47723692 </v>
   <v>       0.35768012      -0.36365378      -0.47818450 </v>
   <v>       0.32226227      -0.47112042      -0.46201896 </v>
   <v>       0.20633193      -0.41797024      -0.48451647 </v>
   <v>       0.33547924      -0.45247258       0.45278571 </v>
   <v>       0.35415661      -0.44789653      -0.49753213 </v>
   <v>       0.22564110      -0.37925302      -0.47489257 </v>
   <v>       0.38156243      -0.39366048      -0.47680198 </v>
   <v>       0.31132567      -0.30098151      -0.47692182 </v>
   <v>       0.38957670      -0.30891938      -0.47775976 </v>
   <v>       0.42047008      -0.37427757      -0.48699967 </v>
   <v>       0.36642960      -0.27780244      -0.47654181 </v>
   <v>       0.19770634      -0.35288499      -0.49549117 </v>
   <v>       0.39124119      -0.46887917      -0.49988122 </v>
   <v>       0.14547021      -0.44142554       0.42851010 </v>
   <v>       0.29400675      -0.27611896      -0.47591575 </v>
   <v>       0.43204048      -0.29154047      -0.47725146 </v>
   <v>       0.21173275      -0.33412044       0.45492542 </v>
   <v>       0.34930001       0.47256911      -0.42528357 </v>
   <v>       0.20553707      -0.32150586      -0.45985815 </v>
   <v>       0.11947630      -0.43512580       0.46104454 </v>
   <v>       0.13954890      -0.39083747      -0.49804159 </v>
   <v>       0.38307532       0.48980790      -0.45889682 </v>
   <v>       0.44146420      -0.41491962       0.42378839 </v>
   <v>       0.43496343      -0.44646155       0.45756402 </v>
   <v>       0.39650583      -0.22401555      -0.47340951 </v>
   <v>       0.37681184      -0.20481154      -0.48208359 </v>
   <v>       0.06599929      -0.47108623       0.46195119 </v>
   <v>       0.10517837      -0.38309177      -0.45856572 </v>
   <v>       0.45638849      -0.20999390       0.45709930 </v>
   <v>       0.05027491       0.49419211       0.43064577 </v>
   <v>       0.41744644       0.46994918      -0.45888836 </v>
   <v>       0.45117928      -0.19577336      -0.49376339 </v>
   <v>       0.12076920      -0.34893763      -0.42608678 </v>
   <v>       0.47526202      -0.20261709      -0.45757554 </v>
   <v>       0.46993091      -0.46497834       0.45826682 </v>
   <v>       0.03099745      -0.46377630      -0.49859707 </v>
   <v>       0.05091335      -0.41845440      -0.45852304 </v>
   <v>       0.38342738       0.42180228      -0.37861120 </v>
   <v>       0.46221280       0.49349205       0.49923131 </v>
   <v>       0.40686497       0.42763049      -0.41859106 </v>
   <v>      -0.49587601      -0.44754268       0.42548428 </v>
   <v>      -0.01279542       0.43629169      -0.45691618 </v>
   <v>       0.41411697      -0.14614141       0.42675348 </v>
   <v>       0.47048106      -0.13823513      -0.49773473 </v>
   <v>       0.43773563       0.42269841      -0.40812874 </v>
   <v>       0.44599935      -0.11949209       0.45943756 </v>
   <v>      -0.02552415       0.49630297      -0.49756333 </v>
   <v>       0.01780436      -0.40838566      -0.41997223 </v>
   <v>       0.03463246      -0.38396121      -0.38074643 </v>
   <v>      -0.04206725       0.44569105      -0.47450040 </v>
   <v>      -0.49858304       0.47620788       0.49987277 </v>
   <v>      -0.46916975      -0.11768025      -0.42405158 </v>
   <v>      -0.48796119      -0.10313578      -0.45795519 </v>
   <v>      -0.01789385      -0.43939210      -0.40935393 </v>
   <v>      -0.43510158      -0.44887425      -0.46935380 </v>
   <v>       0.44794115       0.39742424       0.46851255 </v>
   <v>      -0.44618983      -0.48865290      -0.48292699 </v>
   <v>       0.48815867       0.42523330       0.48295950 </v>
   <v>      -0.06395019      -0.49250124       0.48051600 </v>
   <v>       0.46282267      -0.06652575       0.45850792 </v>
   <v>      -0.05197444      -0.45364867       0.46170119 </v>
   <v>      -0.09504223       0.40812239      -0.47263814 </v>
   <v>      -0.10696372       0.36934130      -0.45335985 </v>
   <v>       0.44370638      -0.05180580       0.42557594 </v>
   <v>      -0.46983254      -0.04940765      -0.45960909 </v>
   <v>      -0.49535534      -0.03079514       0.49810965 </v>
   <v>      -0.11696420       0.46947180       0.48121985 </v>
   <v>      -0.40895383       0.49574309      -0.48187469 </v>
   <v>      -0.47414539       0.40995409       0.48286498 </v>
   <v>      -0.13337033       0.41934716      -0.49473991 </v>
   <v>      -0.41971017      -0.03124775      -0.38023715 </v>
   <v>      -0.42717770      -0.01546021      -0.42068182 </v>
   <v>      -0.36869347      -0.47643247      -0.46731332 </v>
   <v>      -0.42224324       0.44478805      -0.49887322 </v>
   <v>      -0.48557823       0.37058677       0.46685766 </v>
   <v>      -0.14571020       0.47886498       0.46164499 </v>
   <v>       0.44764672       0.01303285      -0.46263317 </v>
   <v>      -0.47920580       0.02524590       0.49699982 </v>
   <v>      -0.42331306       0.01989134      -0.41168499 </v>
   <v>      -0.19028033       0.37696434      -0.49292888 </v>
   <v>       0.48637233       0.04186174      -0.48090190 </v>
   <v>      -0.19730261       0.35368525      -0.44666099 </v>
   <v>      -0.19768908       0.34992353       0.46510482 </v>
   <v>      -0.40239174       0.05102866       0.45607152 </v>
   <v>      -0.37988707       0.43041271      -0.49698162 </v>
   <v>      -0.42952263       0.06312191       0.47412810 </v>
   <v>      -0.21397037       0.43126753      -0.47614033 </v>
   <v>      -0.43538985       0.35200947      -0.48486022 </v>
   <v>      -0.35746083       0.44557957      -0.44972246 </v>
   <v>      -0.22587322       0.39672766      -0.49930080 </v>
   <v>      -0.35168099       0.45133508       0.46233963 </v>
   <v>      -0.39960426       0.37545298       0.49468984 </v>
   <v>      -0.49843250       0.09443141      -0.48071916 </v>
   <v>       0.47453214       0.10652229      -0.46204325 </v>
   <v>      -0.41476270       0.11570989       0.47312592 </v>
   <v>      -0.27865203       0.29128160       0.49857596 </v>
   <v>      -0.27994102       0.36366458      -0.49996990 </v>
   <v>      -0.44877581       0.13222629       0.49644079 </v>
   <v>      -0.36641776       0.35486668       0.49696088 </v>
   <v>      -0.30265267       0.30960990       0.49828705 </v>
   <v>      -0.37655200       0.14397903       0.45290644 </v>
   <v>      -0.43196584       0.27627477       0.49225585 </v>
   <v>      -0.29344009       0.42870135      -0.49915332 </v>
   <v>      -0.31199953       0.38646152       0.49969104 </v>
   <v>      -0.38946827       0.30016860       0.49499680 </v>
   <v>      -0.43442579       0.18867892       0.49723716 </v>
   <v>      -0.45126336       0.19581885      -0.45706850 </v>
   <v>      -0.45382884       0.19585372       0.45462302 </v>
   <v>      -0.35616057       0.21140618      -0.48604331 </v>
   <v>      -0.35775161       0.27771952       0.49546169 </v>
   <v>      -0.37868182       0.22411746       0.49198151 </v>
  </varray>
 </structure>
 <varray name="primitive_index" >
  <v type="int" >        1 </v>
  <v type="int" >       64 </v>
  <v type="int" >       63 </v>
  <v type="int" >       65 </v>
  <v type="int" >       45 </v>
  <v type="int" >        6 </v>
  <v type="int" >       44 </v>
  <v type="int" >      108 </v>
  <v type="int" >       54 </v>
  <v type="int" >       53 </v>
  <v type="int" >       62 </v>
  <v type="int" >       66 </v>
  <v type="int" >        5 </v>
  <v type="int" >       61 </v>
  <v type="int" >      114 </v>
  <v type="int" >      103 </v>
  <v type="int" >       47 </v>
  <v type="int" >        3 </v>
  <v type="int" >        2 </v>
  <v type="int" >       50 </v>
  <v type="int" >       22 </v>
  <v type="int" >       51 </v>
  <v type="int" >      111 </v>
  <v type="int" >      109 </v>
  <v type="int" >       81 </v>
  <v type="int" >       41 </v>
  <v type="int" >      105 </v>
  <v type="int" >       52 </v>
  <v type="int" >        4 </v>
  <v type="int" >      110 </v>
  <v type="int" >       89 </v>
  <v type="int" >       38 </v>
  <v type="int" >       46 </v>
  <v type="int" >       82 </v>
  <v type="int" >      102 </v>
  <v type="int" >       29 </v>
  <v type="int" >       39 </v>
  <v type="int" >      104 </v>
  <v type="int" >       91 </v>
  <v type="int" >       90 </v>
  <v type="int" >       23 </v>
  <v type="int" >       83 </v>
  <v type="int" >       59 </v>
  <v type="int" >       40 </v>
  <v type="int" >       27 </v>
  <v type="int" >       35 </v>
  <v type="int" >       97 </v>
  <v type="int" >       24 </v>
  <v type="int" >       99 </v>
  <v type="int" >       92 </v>
  <v type="int" >       60 </v>
  <v type="int" >       30 </v>
  <v type="int" >       93 </v>
  <v type="int" >       84 </v>
  <v type="int" >       15 </v>
  <v type="int" >       73 </v>
  <v type="int" >       31 </v>
  <v type="int" >       20 </v>
  <v type="int" >       43 </v>
  <v type="int" >       85 </v>
  <v type="int" >      107 </v>
  <v type="int" >      113 </v>
  <v type="int" >       98 </v>
  <v type="int" >       49 </v>
  <v type="int" >       94 </v>
  <v type="int" >       28 </v>
  <v type="int" >       34 </v>
  <v type="int" >       74 </v>
  <v type="int" >       75 </v>
  <v type="int" >      112 </v>
  <v type="int" >       86 </v>
  <v type="int" >      106 </v>
  <v type="int" >       95 </v>
  <v type="int" >       16 </v>
  <v type="int" >       58 </v>
  <v type="int" >       21 </v>
  <v type="int" >       87 </v>
  <v type="int" >       42 </v>
  <v type="int" >       48 </v>
  <v type="int" >       13 </v>
  <v type="int" >       76 </v>
  <v type="int" >       17 </v>
  <v type="int" >       96 </v>
  <v type="int" >       77 </v>
  <v type="int" >       33 </v>
  <v type="int" >       32 </v>
  <v type="int" >       37 </v>
  <v type="int" >       88 </v>
  <v type="int" >      101 </v>
  <v type="int" >       12 </v>
  <v type="int" >       11 </v>
  <v type="int" >       26 </v>
  <v type="int" >       57 </v>
  <v type="int" >       25 </v>
  <v type="int" >       56 </v>
  <v type="int" >       78 </v>
  <v type="int" >       14 </v>
  <v type="int" >      100 </v>
  <v type="int" >        9 </v>
  <v type="int" >       69 </v>
  <v type="int" >       79 </v>
  <v type="int" >       71 </v>
  <v type="int" >       68 </v>
  <v type="int" >       36 </v>
  <v type="int" >        8 </v>
  <v type="int" >        7 </v>
  <v type="int" >       70 </v>
  <v type="int" >       72 </v>
  <v type="int" >       80 </v>
  <v type="int" >       19 </v>
  <v type="int" >       18 </v>
  <v type="int" >       10 </v>
  <v type="int" >       67 </v>
  <v type="int" >       55 </v>
 </varray>
 <kpoints>
  <generation param="listgenerated">
   <i name="divisions" type="int">      20 </i>
   <v>       0.00000000       0.00000000       0.00000000 </v>
   <v>       0.50000000      -0.50000000       0.00000000 </v>
   <v>       0.66480698      -0.33044550       0.00000000 </v>
   <v>       0.50000000       0.00000000       0.00000000 </v>
   <v>       0.33519302       0.33044550       0.00000000 </v>
   <v>       0.00000000       0.50000000       0.00000000 </v>
   <v>       0.00000000       0.00000000       0.00000000 </v>
  </generation>
  <varray name="kpointlist" >
   <v>       0.00000000       0.00000000       0.00000000 </v>
   <v>       0.02631579      -0.02631579       0.00000000 </v>
   <v>       0.05263158      -0.05263158       0.00000000 </v>
   <v>       0.07894737      -0.07894737       0.00000000 </v>
   <v>       0.10526316      -0.10526316       0.00000000 </v>
   <v>       0.13157895      -0.13157895       0.00000000 </v>
   <v>       0.15789474      -0.15789474       0.00000000 </v>
   <v>       0.18421053      -0.18421053       0.00000000 </v>
   <v>       0.21052632      -0.21052632       0.00000000 </v>
   <v>       0.23684211      -0.23684211       0.00000000 </v>
   <v>       0.26315789      -0.26315789       0.00000000 </v>
   <v>       0.28947368      -0.28947368       0.00000000 </v>
   <v>       0.31578947      -0.31578947       0.00000000 </v>
   <v>       0.34210526      -0.34210526       0.00000000 </v>
   <v>       0.36842105      -0.36842105       0.00000000 </v>
   <v>       0.39473684      -0.39473684       0.00000000 </v>
   <v>       0.42105263      -0.42105263       0.00000000 </v>
   <v>       0.44736842      -0.44736842       0.00000000 </v>
   <v>       0.47368421      -0.47368421       0.00000000 </v>
   <v>       0.50000000      -0.50000000       0.00000000 </v>
   <v>       0.50000000      -0.50000000       0.00000000 </v>
   <v>       0.50867405      -0.49107608       0.00000000 </v>
   <v>       0.51734810      -0.48215216       0.00000000 </v>
   <v>       0.52602216      -0.47322824       0.00000000 </v>
   <v>       0.53469621      -0.46430432       0.00000000 </v>
   <v>       0.54337026      -0.45538039       0.00000000 </v>
   <v>       0.55204431      -0.44645647       0.00000000 </v>
   <v>       0.56071836      -0.43753255       0.00000000 </v>
   <v>       0.56939241      -0.42860863       0.00000000 </v>
   <v>       0.57806647      -0.41968471       0.00000000 </v>
   <v>       0.58674052      -0.41076079       0.00000000 </v>
   <v>       0.59541457      -0.40183687       0.00000000 </v>
   <v>       0.60408862      -0.39291295       0.00000000 </v>
   <v>       0.61276267      -0.38398902       0.00000000 </v>
   <v>       0.62143672      -0.37506510       0.00000000 </v>
   <v>       0.63011078      -0.36614118       0.00000000 </v>
   <v>       0.63878483      -0.35721726       0.00000000 </v>
   <v>       0.64745888      -0.34829334       0.00000000 </v>
   <v>       0.65613293      -0.33936942       0.00000000 </v>
   <v>       0.66480698      -0.33044550       0.00000000 </v>
   <v>       0.66480698      -0.33044550       0.00000000 </v>
   <v>       0.65613293      -0.31305363       0.00000000 </v>
   <v>       0.64745888      -0.29566176       0.00000000 </v>
   <v>       0.63878483      -0.27826989       0.00000000 </v>
   <v>       0.63011078      -0.26087802       0.00000000 </v>
   <v>       0.62143672      -0.24348616       0.00000000 </v>
   <v>       0.61276267      -0.22609429       0.00000000 </v>
   <v>       0.60408862      -0.20870242       0.00000000 </v>
   <v>       0.59541457      -0.19131055       0.00000000 </v>
   <v>       0.58674052      -0.17391868       0.00000000 </v>
   <v>       0.57806647      -0.15652681       0.00000000 </v>
   <v>       0.56939241      -0.13913495       0.00000000 </v>
   <v>       0.56071836      -0.12174308       0.00000000 </v>
   <v>       0.55204431      -0.10435121       0.00000000 </v>
   <v>       0.54337026      -0.08695934       0.00000000 </v>
   <v>       0.53469621      -0.06956747       0.00000000 </v>
   <v>       0.52602216      -0.05217560       0.00000000 </v>
   <v>       0.51734810      -0.03478374       0.00000000 </v>
   <v>       0.50867405      -0.01739187       0.00000000 </v>
   <v>       0.50000000       0.00000000       0.00000000 </v>
   <v>       0.50000000       0.00000000       0.00000000 </v>
   <v>       0.49132595       0.01739187       0.00000000 </v>
   <v>       0.48265190       0.03478374       0.00000000 </v>
   <v>       0.47397784       0.05217560       0.00000000 </v>
   <v>       0.46530379       0.06956747       0.00000000 </v>
   <v>       0.45662974       0.08695934       0.00000000 </v>
   <v>       0.44795569       0.10435121       0.00000000 </v>
   <v>       0.43928164       0.12174308       0.00000000 </v>
   <v>       0.43060759       0.13913495       0.00000000 </v>
   <v>       0.42193353       0.15652681       0.00000000 </v>
   <v>       0.41325948       0.17391868       0.00000000 </v>
   <v>       0.40458543       0.19131055       0.00000000 </v>
   <v>       0.39591138       0.20870242       0.00000000 </v>
   <v>       0.38723733       0.22609429       0.00000000 </v>
   <v>       0.37856328       0.24348616       0.00000000 </v>
   <v>       0.36988922       0.26087802       0.00000000 </v>
   <v>       0.36121517       0.27826989       0.00000000 </v>
   <v>       0.35254112       0.29566176       0.00000000 </v>
   <v>       0.34386707       0.31305363       0.00000000 </v>
   <v>       0.33519302       0.33044550       0.00000000 </v>
   <v>       0.33519302       0.33044550       0.00000000 </v>
   <v>       0.31755128       0.33936942       0.00000000 </v>
   <v>       0.29990954       0.34829334       0.00000000 </v>
   <v>       0.28226780       0.35721726       0.00000000 </v>
   <v>       0.26462607       0.36614118       0.00000000 </v>
   <v>       0.24698433       0.37506510       0.00000000 </v>
   <v>       0.22934259       0.38398902       0.00000000 </v>
   <v>       0.21170085       0.39291295       0.00000000 </v>
   <v>       0.19405912       0.40183687       0.00000000 </v>
   <v>       0.17641738       0.41076079       0.00000000 </v>
   <v>       0.15877564       0.41968471       0.00000000 </v>
   <v>       0.14113390       0.42860863       0.00000000 </v>
   <v>       0.12349216       0.43753255       0.00000000 </v>
   <v>       0.10585043       0.44645647       0.00000000 </v>
   <v>       0.08820869       0.45538039       0.00000000 </v>
   <v>       0.07056695       0.46430432       0.00000000 </v>
   <v>       0.05292521       0.47322824       0.00000000 </v>
   <v>       0.03528348       0.48215216       0.00000000 </v>
   <v>       0.01764174       0.49107608       0.00000000 </v>
   <v>       0.00000000       0.50000000       0.00000000 </v>
   <v>       0.00000000       0.50000000       0.00000000 </v>
   <v>       0.00000000       0.47368421       0.00000000 </v>
   <v>       0.00000000       0.44736842       0.00000000 </v>
   <v>       0.00000000       0.42105263       0.00000000 </v>
   <v>       0.00000000       0.39473684       0.00000000 </v>
   <v>       0.00000000       0.36842105       0.00000000 </v>
   <v>       0.00000000       0.34210526       0.00000000 </v>
   <v>       0.00000000       0.31578947       0.00000000 </v>
   <v>       0.00000000       0.28947368       0.00000000 </v>
   <v>       0.00000000       0.26315789       0.00000000 </v>
   <v>       0.00000000       0.23684211       0.00000000 </v>
   <v>       0.00000000       0.21052632       0.00000000 </v>
   <v>       0.00000000       0.18421053       0.00000000 </v>
   <v>       0.00000000       0.15789474       0.00000000 </v>
   <v>       0.00000000       0.13157895       0.00000000 </v>
   <v>       0.00000000       0.10526316       0.00000000 </v>
   <v>       0.00000000       0.07894737       0.00000000 </v>
   <v>       0.00000000       0.05263158       0.00000000 </v>
   <v>       0.00000000       0.02631579       0.00000000 </v>
   <v>       0.00000000       0.00000000       0.00000000 </v>
  </varray>
  <varray name="weights" >
   <v>       0.00833333 </v>
   <v>       0.00833333 </v>
   <v>       0.00833333 </v>
   <v>       0.00833333 </v>
   <v>       0.00833333 </v>
   <v>       0.00833333 </v>
   <v>       0.00833333 </v>
   <v>       0.00833333 </v>
   <v>       0.00833333 </v>
   <v>       0.00833333 </v>
   <v>       0.00833333 </v>
   <v>       0.00833333 </v>
   <v>       0.00833333 </v>
   <v>       0.00833333 </v>
   <v>       0.00833333 </v>
   <v>       0.00833333 </v>
   <v>       0.00833333 </v>
   <v>       0.00833333 </v>
   <v>       0.00833333 </v>
   <v>       0.00833333 </v>
   <v>       0.00833333 </v>
   <v>       0.00833333 </v>
   <v>       0.00833333 </v>
   <v>       0.00833333 </v>
   <v>       0.00833333 </v>
   <v>       0.00833333 </v>
   <v>       0.00833333 </v>
   <v>       0.00833333 </v>
   <v>       0.00833333 </v>
   <v>       0.00833333 </v>
   <v>       0.00833333 </v>
   <v>       0.00833333 </v>
   <v>       0.00833333 </v>
   <v>       0.00833333 </v>
   <v>       0.00833333 </v>
   <v>       0.00833333 </v>
   <v>       0.00833333 </v>
   <v>       0.00833333 </v>
   <v>       0.00833333 </v>
   <v>       0.00833333 </v>
   <v>       0.00833333 </v>
   <v>       0.00833333 </v>
   <v>       0.00833333 </v>
   <v>       0.00833333 </v>
   <v>       0.00833333 </v>
   <v>       0.00833333 </v>
   <v>       0.00833333 </v>
   <v>       0.00833333 </v>
   <v>       0.00833333 </v>
   <v>       0.00833333 </v>
   <v>       0.00833333 </v>
   <v>       0.00833333 </v>
   <v>       0.00833333 </v>
   <v>       0.00833333 </v>
   <v>       0.00833333 </v>
   <v>       0.00833333 </v>
   <v>       0.00833333 </v>
   <v>       0.00833333 </v>
   <v>       0.00833333 </v>
   <v>       0.00833333 </v>
   <v>       0.00833333 </v>
   <v>       0.00833333 </v>
   <v>       0.00833333 </v>
   <v>       0.00833333 </v>
   <v>       0.00833333 </v>
   <v>       0.00833333 </v>
   <v>       0.00833333 </v>
   <v>       0.00833333 </v>
   <v>       0.00833333 </v>
   <v>       0.00833333 </v>
   <v>       0.00833333 </v>
   <v>       0.00833333 </v>
   <v>       0.00833333 </v>
   <v>       0.00833333 </v>
   <v>       0.00833333 </v>
   <v>       0.00833333 </v>
   <v>       0.00833333 </v>
   <v>       0.00833333 </v>
   <v>       0.00833333 </v>
   <v>       0.00833333 </v>
   <v>       0.00833333 </v>
   <v>       0.00833333 </v>
   <v>       0.00833333 </v>
   <v>       0.00833333 </v>
   <v>       0.00833333 </v>
   <v>       0.00833333 </v>
   <v>       0.00833333 </v>
   <v>       0.00833333 </v>
   <v>       0.00833333 </v>
   <v>       0.00833333 </v>
   <v>       0.00833333 </v>
   <v>       0.00833333 </v>
   <v>       0.00833333 </v>
   <v>       0.00833333 </v>
   <v>       0.00833333 </v>
   <v>       0.00833333 </v>
   <v>       0.00833333 </v>
   <v>       0.00833333 </v>
   <v>       0.00833333 </v>
   <v>       0.00833333 </v>
   <v>       0.00833333 </v>
   <v>       0.00833333 </v>
   <v>       0.00833333 </v>
   <v>       0.00833333 </v>
   <v>       0.00833333 </v>
   <v>       0.00833333 </v>
   <v>       0.00833333 </v>
   <v>       0.00833333 </v>
   <v>       0.00833333 </v>
   <v>       0.00833333 </v>
   <v>       0.00833333 </v>
   <v>       0.00833333 </v>
   <v>       0.00833333 </v>
   <v>       0.00833333 </v>
   <v>       0.00833333 </v>
   <v>       0.00833333 </v>
   <v>       0.00833333 </v>
   <v>       0.00833333 </v>
   <v>       0.00833333 </v>
   <v>       0.00833333 </v>
  </varray>
 </kpoints>
 <parameters>
  <separator name="general" >
   <i type="string" name="SYSTEM">Simulation for cell shape cell volume r</i>
   <i type="logical" name="LCOMPAT"> F  </i>
  </separator>
  <separator name="electronic" >
   <i type="string" name="PREC">high</i>
   <i name="ENMAX">    500.00000000</i>
   <i name="ENAUG">    644.87300000</i>
   <i name="EDIFF">      0.00001000</i>
   <i type="int" name="IALGO">    38</i>
   <i type="int" name="IWAVPR">    10</i>
   <i type="int" name="NBANDS">   224</i>
   <i name="NELECT">    312.00000000</i>
   <i type="int" name="TURBO">     0</i>
   <i type="int" name="IRESTART">     0</i>
   <i type="int" name="NREBOOT">     0</i>
   <i type="int" name="NMIN">     0</i>
   <i name="EREF">      0.00000000</i>
   <separator name="electronic smearing" >
    <i type="int" name="ISMEAR">     0</i>
    <i name="SIGMA">      0.01000000</i>
    <i name="KSPACING">      0.50000000</i>
    <i type="logical" name="KGAMMA"> T  </i>
   </separator>
   <separator name="electronic projectors" >
    <i type="logical" name="LREAL"> T  </i>
    <v name="ROPT">     -0.00040000     -0.00040000     -0.00040000</v>
    <i type="int" name="LMAXPAW">  -100</i>
    <i type="int" name="LMAXMIX">     2</i>
    <i type="logical" name="NLSPLINE"> F  </i>
   </separator>
   <separator name="electronic startup" >
    <i type="int" name="ISTART">     1</i>
    <i type="int" name="ICHARG">    11</i>
    <i type="int" name="INIWAV">     1</i>
   </separator>
   <separator name="electronic spin" >
    <i type="int" name="ISPIN">     1</i>
    <i type="logical" name="LNONCOLLINEAR"> F  </i>
    <v name="MAGMOM">      1.00000000      1.00000000      1.00000000      1.00000000      1.00000000      1.00000000      1.00000000      1.00000000      1.00000000      1.00000000      1.00000000      1.00000000      1.00000000      1.00000000      1.00000000      1.00000000      1.00000000      1.00000000      1.00000000      1.00000000
      1.00000000      1.00000000      1.00000000      1.00000000      1.00000000      1.00000000      1.00000000      1.00000000      1.00000000      1.00000000      1.00000000      1.00000000      1.00000000      1.00000000      1.00000000      1.00000000      1.00000000      1.00000000      1.00000000      1.00000000
      1.00000000      1.00000000      1.00000000      1.00000000      1.00000000      1.00000000      1.00000000      1.00000000      1.00000000      1.00000000      1.00000000      1.00000000      1.00000000      1.00000000      1.00000000      1.00000000      1.00000000      1.00000000      1.00000000      1.00000000
      1.00000000      1.00000000      1.00000000      1.00000000      1.00000000      1.00000000      1.00000000      1.00000000      1.00000000      1.00000000      1.00000000      1.00000000      1.00000000      1.00000000      1.00000000      1.00000000      1.00000000      1.00000000      1.00000000      1.00000000
      1.00000000      1.00000000      1.00000000      1.00000000      1.00000000      1.00000000      1.00000000      1.00000000      1.00000000      1.00000000      1.00000000      1.00000000      1.00000000      1.00000000      1.00000000      1.00000000      1.00000000      1.00000000      1.00000000      1.00000000
      1.00000000      1.00000000      1.00000000      1.00000000      1.00000000      1.00000000      1.00000000      1.00000000      1.00000000      1.00000000      1.00000000      1.00000000      1.00000000      1.00000000</v>
    <i name="NUPDOWN">     -1.00000000</i>
    <i type="logical" name="LSORBIT"> F  </i>
    <v name="SAXIS">      0.00000000      0.00000000      1.00000000</v>
    <i type="logical" name="LSPIRAL"> F  </i>
    <v name="QSPIRAL">      0.00000000      0.00000000      0.00000000</v>
    <i type="logical" name="LZEROZ"> F  </i>
   </separator>
   <separator name="electronic exchange-correlation" >
    <i type="logical" name="LASPH"> F  </i>
    <i type="logical" name="LMETAGGA"> F  </i>
   </separator>
   <separator name="electronic convergence" >
    <i type="int" name="NELM">   200</i>
    <i type="int" name="NELMDL">     0</i>
    <i type="int" name="NELMIN">     2</i>
    <i name="ENINI">    500.00000000</i>
    <separator name="electronic convergence detail" >
     <i type="logical" name="LDIAG"> T  </i>
     <i type="logical" name="LSUBROT"> F  </i>
     <i name="WEIMIN">      0.00000000</i>
     <i name="EBREAK">      0.00000001</i>
     <i name="DEPER">      0.30000000</i>
     <i type="int" name="NRMM">     4</i>
     <i name="TIME">      0.40000000</i>
    </separator>
   </separator>
   <separator name="electronic mixer" >
    <i name="AMIX">      0.40000000</i>
    <i name="BMIX">      1.00000000</i>
    <i name="AMIN">      0.10000000</i>
    <i name="AMIX_MAG">      1.60000000</i>
    <i name="BMIX_MAG">      1.00000000</i>
    <separator name="electronic mixer details" >
     <i type="int" name="IMIX">     4</i>
     <i type="logical" name="MIXFIRST"> F  </i>
     <i type="int" name="MAXMIX">   -45</i>
     <i name="WC">    100.00000000</i>
     <i type="int" name="INIMIX">     1</i>
     <i type="int" name="MIXPRE">     1</i>
     <i type="int" name="MREMOVE">     5</i>
    </separator>
   </separator>
   <separator name="electronic dipolcorrection" >
    <i type="logical" name="LDIPOL"> F  </i>
    <i type="logical" name="LMONO"> F  </i>
    <i type="int" name="IDIPOL">     0</i>
    <i name="EPSILON">      1.00000000</i>
    <v name="DIPOL">   -100.00000000   -100.00000000   -100.00000000</v>
    <i name="EFIELD">      0.00000000</i>
   </separator>
  </separator>
  <separator name="grids" >
   <i type="int" name="NGX">   216</i>
   <i type="int" name="NGY">   224</i>
   <i type="int" name="NGZ">   150</i>
   <i type="int" name="NGXF">   336</i>
   <i type="int" name="NGYF">   336</i>
   <i type="int" name="NGZF">   224</i>
   <i type="logical" name="ADDGRID"> F  </i>
  </separator>
  <separator name="ionic" >
   <i type="int" name="NSW">     0</i>
   <i type="int" name="IBRION">    -1</i>
   <i type="int" name="MDALGO">     0</i>
   <i type="int" name="ISIF">     2</i>
   <i name="PSTRESS">      0.00000000</i>
   <i name="EDIFFG">     -0.01000000</i>
   <i type="int" name="NFREE">     0</i>
   <i name="POTIM">      0.30000000</i>
   <i name="SMASS">     -3.00000000</i>
   <i name="SCALEE">      1.00000000</i>
  </separator>
  <separator name="ionic md" >
   <i name="TEBEG">      0.00010000</i>
   <i name="TEEND">      0.00010000</i>
   <i type="int" name="NBLOCK">     1</i>
   <i type="int" name="KBLOCK">     1</i>
   <i type="int" name="NPACO">   256</i>
   <i name="APACO">     16.00000000</i>
  </separator>
  <separator name="symmetry" >
   <i type="int" name="ISYM">     2</i>
   <i name="SYMPREC">      0.00001000</i>
  </separator>
  <separator name="dos" >
   <i type="int" name="LORBIT">     0</i>
   <v name="RWIGS">     -1.00000000     -1.00000000     -1.00000000</v>
   <i type="int" name="NEDOS">   301</i>
   <i name="EMIN">     10.00000000</i>
   <i name="EMAX">    -10.00000000</i>
   <i name="EFERMI">      0.00000000</i>
  </separator>
  <separator name="writing" >
   <i type="int" name="NWRITE">     0</i>
   <i type="logical" name="LWAVE"> F  </i>
   <i type="logical" name="LDOWNSAMPLE"> F  </i>
   <i type="logical" name="LCHARG"> F  </i>
   <i type="logical" name="LPARD"> F  </i>
   <i type="logical" name="LVTOT"> F  </i>
   <i type="logical" name="LVHAR"> F  </i>
   <i type="logical" name="LELF"> F  </i>
   <i type="logical" name="LOPTICS"> F  </i>
   <v name="STM">      0.00000000      0.00000000      0.00000000      0.00000000      0.00000000      0.00000000      0.00000000</v>
  </separator>
  <separator name="performance" >
   <i type="int" name="NPAR">    16</i>
   <i type="int" name="NSIM">     4</i>
   <i type="int" name="NBLK">    -1</i>
   <i type="logical" name="LPLANE"> T  </i>
   <i type="logical" name="LSCALAPACK"> T  </i>
   <i type="logical" name="LSCAAWARE"> F  </i>
   <i type="logical" name="LSCALU"> F  </i>
   <i type="logical" name="LASYNC"> F  </i>
   <i type="logical" name="LORBITALREAL"> F  </i>
  </separator>
  <separator name="miscellaneous" >
   <i type="int" name="IDIOT">     3</i>
   <i type="int" name="ISPECIAL">     0</i>
   <i type="logical" name="LMUSIC"> F  </i>
   <v name="POMASS">      1.00000000     14.00100000     12.01100000</v>
   <v name="DARWINR">      0.00000000      0.00000000      0.00000000</v>
   <v name="DARWINV">      1.00000000      1.00000000      1.00000000</v>
   <i type="logical" name="LCORR"> T  </i>
  </separator>
  <i type="logical" name="GGA_COMPAT"> T  </i>
  <i type="logical" name="LBERRY"> F  </i>
  <i type="int" name="ICORELEVEL">     0</i>
  <i type="logical" name="LDAU"> F  </i>
  <i type="int" name="I_CONSTRAINED_M">     0</i>
  <separator name="electronic exchange-correlation" >
   <i type="string" name="GGA">PE</i>
   <i type="int" name="VOSKOWN">     0</i>
   <i type="logical" name="LHFCALC"> F  </i>
   <i type="string" name="PRECFOCK"></i>
   <i type="logical" name="LSYMGRAD"> F  </i>
   <i type="logical" name="LHFONE"> F  </i>
   <i type="logical" name="LRHFCALC"> F  </i>
   <i type="logical" name="LTHOMAS"> F  </i>
   <i type="logical" name="LMODELHF"> F  </i>
   <i name="ENCUT4O">     -1.00000000</i>
   <i type="int" name="EXXOEP">     0</i>
   <i type="int" name="FOURORBIT">     0</i>
   <i name="AEXX">      0.00000000</i>
   <i name="HFALPHA">      0.00000000</i>
   <i name="MCALPHA">      0.00000000</i>
   <i name="ALDAX">      1.00000000</i>
   <i name="AGGAX">      1.00000000</i>
   <i name="ALDAC">      1.00000000</i>
   <i name="AGGAC">      1.00000000</i>
   <i type="int" name="NKREDX">     1</i>
   <i type="int" name="NKREDY">     1</i>
   <i type="int" name="NKREDZ">     1</i>
   <i type="logical" name="SHIFTRED"> F  </i>
   <i type="logical" name="ODDONLY"> F  </i>
   <i type="logical" name="EVENONLY"> F  </i>
   <i type="int" name="LMAXFOCK">     0</i>
   <i type="int" name="NMAXFOCKAE">     0</i>
   <i type="logical" name="LFOCKAEDFT"> F  </i>
   <i name="HFSCREEN">      0.00000000</i>
   <i name="HFSCREENC">      0.00000000</i>
   <i type="int" name="NBANDSGWLOW">     0</i>
  </separator>
  <separator name="vdW DFT" >
   <i type="logical" name="LUSE_VDW"> F  </i>
   <i name="Zab_VDW">     -0.84910000</i>
   <i name="PARAM1">      0.12340000</i>
   <i name="PARAM2">      1.00000000</i>
   <i name="PARAM3">      0.00000000</i>
  </separator>
  <separator name="model GW" >
   <i type="int" name="MODEL_GW">     0</i>
   <i name="MODEL_EPS0">     79.93954689</i>
   <i name="MODEL_ALPHA">      1.00000000</i>
  </separator>
  <separator name="linear response parameters" >
   <i type="logical" name="LEPSILON"> F  </i>
   <i type="logical" name="LRPA"> F  </i>
   <i type="logical" name="LNABLA"> F  </i>
   <i type="logical" name="LVEL"> F  </i>
   <i type="int" name="KINTER">     0</i>
   <i name="CSHIFT">      0.10000000</i>
   <i name="OMEGAMAX">     -1.00000000</i>
   <i name="DEG_THRESHOLD">      0.00200000</i>
   <i name="RTIME">     -0.10000000</i>
   <i name="WPLASMAI">      0.00000000</i>
   <v name="DFIELD">      0.00000000      0.00000000      0.00000000</v>
   <v name="WPLASMA">      0.00000000      0.00000000      0.00000000      0.00000000      0.00000000      0.00000000      0.00000000      0.00000000      0.00000000</v>
  </separator>
  <separator name="orbital magnetization" >
   <i type="logical" name="NUCIND"> F  </i>
   <v name="MAGPOS">      0.00000000      0.00000000      0.00000000</v>
   <i type="logical" name="LNICSALL"> T  </i>
   <i type="logical" name="ORBITALMAG"> F  </i>
   <i type="logical" name="LMAGBLOCH"> F  </i>
   <i type="logical" name="LCHIMAG"> F  </i>
   <i type="logical" name="LGAUGE"> T  </i>
   <i type="int" name="MAGATOM">     0</i>
   <v name="MAGDIPOL">      0.00000000      0.00000000      0.00000000</v>
   <v name="AVECCONST">      0.00000000      0.00000000      0.00000000</v>
  </separator>
  <separator name="response functions" >
   <i type="logical" name="LADDER"> F  </i>
   <i type="logical" name="LRPAFORCE"> F  </i>
   <i type="logical" name="LFXC"> F  </i>
   <i type="logical" name="LHARTREE"> T  </i>
   <i type="int" name="IBSE">     0</i>
   <v type="int" name="KPOINT">    -1     0     0     0</v>
   <i type="logical" name="LTCTE"> F  </i>
   <i type="logical" name="LTETE"> F  </i>
   <i type="logical" name="LTRIPLET"> F  </i>
   <i type="logical" name="LFXCEPS"> F  </i>
   <i type="logical" name="LFXHEG"> F  </i>
   <i type="int" name="NATURALO">     2</i>
   <i type="logical" name="L2ORDER"> F  </i>
   <i type="logical" name="LMP2LT"> F  </i>
   <i type="logical" name="LUSEW"> F  </i>
   <i name="ENCUTGW">     -2.00000000</i>
   <i name="ENCUTGWSOFT">     -2.00000000</i>
   <i name="ENCUTLF">     -1.00000000</i>
   <i type="int" name="LMAXMP2">    -1</i>
   <i name="SCISSOR">      0.00000000</i>
   <i type="int" name="NOMEGA">     0</i>
   <i type="int" name="NOMEGAR">     0</i>
   <i type="int" name="NBANDSGW">    -1</i>
   <i type="int" name="NBANDSO">    -1</i>
   <i type="int" name="NBANDSV">    -1</i>
   <i type="int" name="NELM">   200</i>
   <i type="int" name="NELMHF">     1</i>
   <i type="int" name="DIM">     3</i>
   <i type="int" name="ANTIRES">     0</i>
   <i name="OMEGAMAX">    -30.00000000</i>
   <i name="OMEGAMIN">    -30.00000000</i>
   <i name="OMEGATL">   -200.00000000</i>
   <i type="int" name="OMEGAGRID">   140</i>
   <i name="CSHIFT">     -0.10000000</i>
   <i type="logical" name="SELFENERGY"> F  </i>
   <i type="logical" name="LSPECTRAL"> F  </i>
   <i type="logical" name="LSPECTRALGW"> F  </i>
   <i type="logical" name="LSINGLES"> F  </i>
   <i type="logical" name="LFERMIGW"> F  </i>
   <i type="logical" name="ODDONLYGW"> F  </i>
   <i type="logical" name="EVENONLYGW"> F  </i>
   <i type="int" name="NKREDLFX">     1</i>
   <i type="int" name="NKREDLFY">     1</i>
   <i type="int" name="NKREDLFZ">     1</i>
   <i type="int" name="MAXMEM">  2800</i>
   <i type="int" name="TELESCOPE">     0</i>
   <i type="int" name="TAUPAR">     1</i>
   <i type="int" name="OMEGAPAR">    -1</i>
   <i name="LAMBDA">      1.00000000</i>
  </separator>
  <separator name="External order field" >
   <i name="OFIELD_KAPPA">      0.00000000</i>
   <v name="OFIELD_K">      0.00000000      0.00000000      0.00000000</v>
   <i name="OFIELD_Q6_NEAR">      0.00000000</i>
   <i name="OFIELD_Q6_FAR">      0.00000000</i>
   <i name="OFIELD_A">      0.00000000</i>
  </separator>
  <separator name="solvation model" >
   <i type="logical" name="LSOL"> F  </i>
  </separator>
 </parameters>
 <atominfo>
  <atoms>     114 </atoms>
  <types>       3 </types>
  <array name="atoms" >
   <dimension dim="1">ion</dimension>
   <field type="string">element</field>
   <field type="int">atomtype</field>
   <set>
    <rc><c>H </c><c>   1</c></rc>
    <rc><c>H </c><c>   1</c></rc>
    <rc><c>H </c><c>   1</c></rc>
    <rc><c>H </c><c>   1</c></rc>
    <rc><c>H </c><c>   1</c></rc>
    <rc><c>H </c><c>   1</c></rc>
    <rc><c>H </c><c>   1</c></rc>
    <rc><c>H </c><c>   1</c></rc>
    <rc><c>H </c><c>   1</c></rc>
    <rc><c>H </c><c>   1</c></rc>
    <rc><c>H </c><c>   1</c></rc>
    <rc><c>H </c><c>   1</c></rc>
    <rc><c>H </c><c>   1</c></rc>
    <rc><c>H </c><c>   1</c></rc>
    <rc><c>H </c><c>   1</c></rc>
    <rc><c>H </c><c>   1</c></rc>
    <rc><c>H </c><c>   1</c></rc>
    <rc><c>H </c><c>   1</c></rc>
    <rc><c>H </c><c>   1</c></rc>
    <rc><c>H </c><c>   1</c></rc>
    <rc><c>H </c><c>   1</c></rc>
    <rc><c>H </c><c>   1</c></rc>
    <rc><c>H </c><c>   1</c></rc>
    <rc><c>H </c><c>   1</c></rc>
    <rc><c>H </c><c>   1</c></rc>
    <rc><c>H </c><c>   1</c></rc>
    <rc><c>H </c><c>   1</c></rc>
    <rc><c>H </c><c>   1</c></rc>
    <rc><c>H </c><c>   1</c></rc>
    <rc><c>H </c><c>   1</c></rc>
    <rc><c>H </c><c>   1</c></rc>
    <rc><c>H </c><c>   1</c></rc>
    <rc><c>H </c><c>   1</c></rc>
    <rc><c>H </c><c>   1</c></rc>
    <rc><c>H </c><c>   1</c></rc>
    <rc><c>H </c><c>   1</c></rc>
    <rc><c>H </c><c>   1</c></rc>
    <rc><c>H </c><c>   1</c></rc>
    <rc><c>H </c><c>   1</c></rc>
    <rc><c>H </c><c>   1</c></rc>
    <rc><c>H </c><c>   1</c></rc>
    <rc><c>H </c><c>   1</c></rc>
    <rc><c>H </c><c>   1</c></rc>
    <rc><c>H </c><c>   1</c></rc>
    <rc><c>H </c><c>   1</c></rc>
    <rc><c>H </c><c>   1</c></rc>
    <rc><c>H </c><c>   1</c></rc>
    <rc><c>H </c><c>   1</c></rc>
    <rc><c>H </c><c>   1</c></rc>
    <rc><c>H </c><c>   1</c></rc>
    <rc><c>H </c><c>   1</c></rc>
    <rc><c>N </c><c>   2</c></rc>
    <rc><c>N </c><c>   2</c></rc>
    <rc><c>N </c><c>   2</c></rc>
    <rc><c>N </c><c>   2</c></rc>
    <rc><c>N </c><c>   2</c></rc>
    <rc><c>N </c><c>   2</c></rc>
    <rc><c>N </c><c>   2</c></rc>
    <rc><c>N </c><c>   2</c></rc>
    <rc><c>N </c><c>   2</c></rc>
    <rc><c>C </c><c>   3</c></rc>
    <rc><c>C </c><c>   3</c></rc>
    <rc><c>C </c><c>   3</c></rc>
    <rc><c>C </c><c>   3</c></rc>
    <rc><c>C </c><c>   3</c></rc>
    <rc><c>C </c><c>   3</c></rc>
    <rc><c>C </c><c>   3</c></rc>
    <rc><c>C </c><c>   3</c></rc>
    <rc><c>C </c><c>   3</c></rc>
    <rc><c>C </c><c>   3</c></rc>
    <rc><c>C </c><c>   3</c></rc>
    <rc><c>C </c><c>   3</c></rc>
    <rc><c>C </c><c>   3</c></rc>
    <rc><c>C </c><c>   3</c></rc>
    <rc><c>C </c><c>   3</c></rc>
    <rc><c>C </c><c>   3</c></rc>
    <rc><c>C </c><c>   3</c></rc>
    <rc><c>C </c><c>   3</c></rc>
    <rc><c>C </c><c>   3</c></rc>
    <rc><c>C </c><c>   3</c></rc>
    <rc><c>C </c><c>   3</c></rc>
    <rc><c>C </c><c>   3</c></rc>
    <rc><c>C </c><c>   3</c></rc>
    <rc><c>C </c><c>   3</c></rc>
    <rc><c>C </c><c>   3</c></rc>
    <rc><c>C </c><c>   3</c></rc>
    <rc><c>C </c><c>   3</c></rc>
    <rc><c>C </c><c>   3</c></rc>
    <rc><c>C </c><c>   3</c></rc>
    <rc><c>C </c><c>   3</c></rc>
    <rc><c>C </c><c>   3</c></rc>
    <rc><c>C </c><c>   3</c></rc>
    <rc><c>C </c><c>   3</c></rc>
    <rc><c>C </c><c>   3</c></rc>
    <rc><c>C </c><c>   3</c></rc>
    <rc><c>C </c><c>   3</c></rc>
    <rc><c>C </c><c>   3</c></rc>
    <rc><c>C </c><c>   3</c></rc>
    <rc><c>C </c><c>   3</c></rc>
    <rc><c>C </c><c>   3</c></rc>
    <rc><c>C </c><c>   3</c></rc>
    <rc><c>C </c><c>   3</c></rc>
    <rc><c>C </c><c>   3</c></rc>
    <rc><c>C </c><c>   3</c></rc>
    <rc><c>C </c><c>   3</c></rc>
    <rc><c>C </c><c>   3</c></rc>
    <rc><c>C </c><c>   3</c></rc>
    <rc><c>C </c><c>   3</c></rc>
    <rc><c>C </c><c>   3</c></rc>
    <rc><c>C </c><c>   3</c></rc>
    <rc><c>C </c><c>   3</c></rc>
    <rc><c>C </c><c>   3</c></rc>
    <rc><c>C </c><c>   3</c></rc>
    <rc><c>C </c><c>   3</c></rc>
   </set>
  </array>
  <array name="atomtypes" >
   <dimension dim="1">type</dimension>
   <field type="int">atomspertype</field>
   <field type="string">element</field>
   <field>mass</field>
   <field>valence</field>
   <field type="string">pseudopotential</field>
   <set>
    <rc><c>  51</c><c>H </c><c>      1.00000000</c><c>      1.00000000</c><c>  PAW_PBE H 15Jun2001                   </c></rc>
    <rc><c>   9</c><c>N </c><c>     14.00100000</c><c>      5.00000000</c><c>  PAW_PBE N 08Apr2002                   </c></rc>
    <rc><c>  54</c><c>C </c><c>     12.01100000</c><c>      4.00000000</c><c>  PAW_PBE C 08Apr2002                   </c></rc>
   </set>
  </array>
 </atominfo>
 <structure name="initialpos" >
  <crystal>
   <varray name="basis" >
    <v>      29.53054240      -0.09895526       0.00000000 </v>
    <v>     -14.85159669      25.76638549       0.00000000 </v>
    <v>       0.00000000       0.00000000      20.00000000 </v>
   </varray>
   <i name="volume">  15188.51390911 </i>
   <varray name="rec_basis" >
    <v>       0.03392878       0.01955635       0.00000000 </v>
    <v>       0.00013030       0.03888536       0.00000000 </v>
    <v>       0.00000000       0.00000000       0.05000000 </v>
   </varray>
  </crystal>
  <varray name="positions" >
   <v>       0.27796181       0.57115673       0.52122395 </v>
   <v>       0.43204048       0.70845953       0.52274854 </v>
   <v>       0.29400675       0.72388104       0.52408425 </v>
   <v>       0.37681184       0.79518846       0.51791641 </v>
   <v>       0.42047008       0.62572243       0.51300033 </v>
   <v>       0.20633193       0.58202976       0.51548353 </v>
   <v>       0.70655991       0.42870135       0.50084668 </v>
   <v>       0.56803416       0.27627477       0.49225585 </v>
   <v>       0.72134797       0.29128160       0.49857596 </v>
   <v>       0.64383943       0.21140618       0.51395669 </v>
   <v>       0.56461015       0.35200947       0.51513978 </v>
   <v>       0.78602963       0.43126753       0.52385967 </v>
   <v>       0.44764672       0.01303285       0.53736683 </v>
   <v>       0.47453214       0.10652229       0.53795675 </v>
   <v>       0.53083025       0.88231975       0.57594842 </v>
   <v>       0.58028983       0.96875225       0.61976285 </v>
   <v>       0.57668694       0.01989134       0.58831501 </v>
   <v>       0.54617116       0.19585372       0.45462302 </v>
   <v>       0.54873664       0.19581885       0.54293150 </v>
   <v>       0.56489842       0.55112575       0.53064620 </v>
   <v>       0.63130653       0.52356753       0.53268668 </v>
   <v>       0.34930001       0.47256911       0.57471643 </v>
   <v>       0.38342738       0.42180228       0.62138880 </v>
   <v>       0.43773563       0.42269841       0.59187126 </v>
   <v>       0.64831901       0.45133508       0.46233963 </v>
   <v>       0.64253917       0.44557957       0.55027754 </v>
   <v>       0.98720458       0.43629169       0.54308382 </v>
   <v>       0.89303628       0.36934130       0.54664015 </v>
   <v>       0.12076920       0.65106237       0.57391322 </v>
   <v>       0.03463246       0.61603879       0.61925357 </v>
   <v>       0.98210615       0.56060790       0.59064607 </v>
   <v>       0.80231092       0.34992353       0.46510482 </v>
   <v>       0.80269739       0.35368525       0.55333901 </v>
   <v>       0.44370638       0.94819420       0.42557594 </v>
   <v>       0.41411697       0.85385859       0.42675348 </v>
   <v>       0.62344800       0.14397903       0.45290644 </v>
   <v>       0.59760826       0.05102866       0.45607152 </v>
   <v>       0.45638849       0.79000610       0.45709930 </v>
   <v>       0.47526202       0.79738291       0.54242446 </v>
   <v>       0.50412399       0.55245732       0.42548428 </v>
   <v>       0.44146420       0.58508038       0.42378839 </v>
   <v>       0.51442177       0.37058677       0.46685766 </v>
   <v>       0.44794115       0.39742424       0.46851255 </v>
   <v>       0.33547924       0.54752742       0.45278571 </v>
   <v>       0.32226227       0.52887958       0.53798104 </v>
   <v>       0.05027491       0.49419211       0.43064577 </v>
   <v>       0.14547021       0.55857446       0.42851010 </v>
   <v>       0.85428980       0.47886498       0.46164499 </v>
   <v>       0.94802556       0.54635133       0.46170119 </v>
   <v>       0.21173275       0.66587956       0.45492542 </v>
   <v>       0.20553707       0.67849414       0.54014185 </v>
   <v>       0.39650583       0.77598445       0.52659049 </v>
   <v>       0.38156243       0.60633952       0.52319802 </v>
   <v>       0.22564110       0.62074698       0.52510743 </v>
   <v>       0.62131818       0.22411746       0.49198151 </v>
   <v>       0.60039574       0.37545298       0.49468984 </v>
   <v>       0.77412678       0.39672766       0.50069920 </v>
   <v>       0.57282230       0.98453979       0.57931818 </v>
   <v>       0.40686497       0.42763049       0.58140894 </v>
   <v>       0.01780436       0.59161434       0.58002777 </v>
   <v>       0.36642960       0.72219756       0.52345819 </v>
   <v>       0.31132567       0.69901849       0.52307818 </v>
   <v>       0.27984264       0.64481166       0.52276308 </v>
   <v>       0.30308677       0.61331626       0.52153523 </v>
   <v>       0.35768012       0.63634622       0.52181550 </v>
   <v>       0.38957670       0.69108062       0.52224024 </v>
   <v>       0.64224839       0.27771952       0.49546169 </v>
   <v>       0.69734733       0.30960990       0.49828705 </v>
   <v>       0.72005898       0.36366458       0.50003010 </v>
   <v>       0.68800047       0.38646152       0.49969104 </v>
   <v>       0.63358224       0.35486668       0.49696088 </v>
   <v>       0.61053173       0.30016860       0.49499680 </v>
   <v>       0.51203881       0.89686422       0.54204481 </v>
   <v>       0.53016746       0.95059235       0.54039091 </v>
   <v>       0.50464466       0.96920486       0.49810965 </v>
   <v>       0.52079420       0.02524590       0.49699982 </v>
   <v>       0.48637233       0.04186174       0.51909810 </v>
   <v>       0.50156750       0.09443141       0.51928084 </v>
   <v>       0.55122419       0.13222629       0.49644079 </v>
   <v>       0.56557421       0.18867892       0.49723716 </v>
   <v>       0.38307532       0.48980790       0.54110318 </v>
   <v>       0.41744644       0.46994918       0.54111164 </v>
   <v>       0.46221280       0.49349205       0.49923131 </v>
   <v>       0.50141696       0.47620788       0.49987277 </v>
   <v>       0.55381017       0.51134710       0.51707301 </v>
   <v>       0.59104617       0.49574309       0.51812531 </v>
   <v>       0.57775676       0.44478805       0.50112678 </v>
   <v>       0.62011293       0.43041271       0.50301838 </v>
   <v>       0.10517837       0.61690823       0.54143428 </v>
   <v>       0.05091335       0.58154560       0.54147696 </v>
   <v>       0.03099745       0.53622370       0.50140293 </v>
   <v>       0.97447585       0.49630297       0.50243667 </v>
   <v>       0.95793275       0.44569105       0.52549960 </v>
   <v>       0.90495777       0.40812239       0.52736186 </v>
   <v>       0.86662967       0.41934716       0.50526009 </v>
   <v>       0.80971967       0.37696434       0.50707112 </v>
   <v>       0.47048106       0.86176487       0.50226527 </v>
   <v>       0.46282267       0.93347425       0.45850792 </v>
   <v>       0.44599935       0.88050791       0.45943756 </v>
   <v>       0.58523730       0.11570989       0.47312592 </v>
   <v>       0.57047737       0.06312191       0.47412810 </v>
   <v>       0.45117928       0.80422664       0.50623661 </v>
   <v>       0.39124119       0.53112083       0.50011878 </v>
   <v>       0.46993091       0.53502166       0.45826682 </v>
   <v>       0.43496343       0.55353845       0.45756402 </v>
   <v>       0.52585461       0.40995409       0.48286498 </v>
   <v>       0.48815867       0.42523330       0.48295950 </v>
   <v>       0.35415661       0.55210347       0.50246787 </v>
   <v>       0.13954890       0.60916253       0.50195841 </v>
   <v>       0.06599929       0.52891377       0.46195119 </v>
   <v>       0.11947630       0.56487420       0.46104454 </v>
   <v>       0.88303580       0.46947180       0.48121985 </v>
   <v>       0.93604981       0.50749876       0.48051600 </v>
   <v>       0.19770634       0.64711501       0.50450883 </v>
  </varray>
 </structure>
 <calculation>
  <scstep>
   <time name="dav"> 1144.56 1156.77</time>
   <time name="total"> 1144.83 1157.05</time>
   <energy>
    <i name="alphaZ">     29.31665402 </i>
    <i name="ewald">  35741.19467722 </i>
    <i name="hartreedc"> -44714.72573881 </i>
    <i name="XCdc">   1068.22976961 </i>
    <i name="pawpsdc">  27828.25190945 </i>
    <i name="pawaedc"> -27879.86336166 </i>
    <i name="eentropy">     -0.00000000 </i>
    <i name="bandstr">  -3784.37373329 </i>
    <i name="atom">  10963.63633922 </i>
    <i name="e_fr_energy">   -748.33348424 </i>
    <i name="e_wo_entrp">   -748.33348424 </i>
    <i name="e_0_energy">   -748.33348424 </i>
   </energy>
  </scstep>
  <scstep>
   <time name="dav"> 1309.70 1323.53</time>
   <time name="total"> 1309.71 1323.53</time>
   <energy>
    <i name="e_fr_energy">   -748.87316357 </i>
    <i name="e_wo_entrp">   -748.87316357 </i>
    <i name="e_0_energy">   -748.87316357 </i>
   </energy>
  </scstep>
  <scstep>
   <time name="dav"> 1407.91 1422.99</time>
   <time name="total"> 1407.91 1422.99</time>
   <energy>
    <i name="e_fr_energy">   -748.88764982 </i>
    <i name="e_wo_entrp">   -748.88764982 </i>
    <i name="e_0_energy">   -748.88764982 </i>
   </energy>
  </scstep>
  <scstep>
   <time name="dav"> 1304.79 1318.78</time>
   <time name="total"> 1304.79 1318.78</time>
   <energy>
    <i name="e_fr_energy">   -748.88800428 </i>
    <i name="e_wo_entrp">   -748.88800428 </i>
    <i name="e_0_energy">   -748.88800428 </i>
   </energy>
  </scstep>
  <scstep>
   <time name="dav"> 1309.50 1323.51</time>
   <time name="total"> 1309.51 1323.52</time>
   <energy>
    <i name="e_fr_energy">   -748.88802405 </i>
    <i name="e_wo_entrp">   -748.88802405 </i>
    <i name="e_0_energy">   -748.88802405 </i>
   </energy>
  </scstep>
  <scstep>
   <time name="dav"> 1001.12 1012.38</time>
   <time name="total"> 1001.12 1012.38</time>
   <energy>
    <i name="alphaZ">     29.31665402 </i>
    <i name="ewald">  35741.19467722 </i>
    <i name="hartreedc"> -44714.72573881 </i>
    <i name="XCdc">   1068.22976961 </i>
    <i name="pawpsdc">  27828.25190945 </i>
    <i name="pawaedc"> -27879.86336166 </i>
    <i name="eentropy">     -0.00000000 </i>
    <i name="bandstr">  -3784.92827366 </i>
    <i name="atom">  10963.63633922 </i>
    <i name="e_fr_energy">   -748.88802461 </i>
    <i name="e_wo_entrp">   -748.88802461 </i>
    <i name="e_0_energy">   -748.88802461 </i>
   </energy>
  </scstep>
  <structure>
   <crystal>
    <varray name="basis" >
     <v>      29.53054240      -0.09895526       0.00000000 </v>
     <v>     -14.85159669      25.76638549       0.00000000 </v>
     <v>       0.00000000       0.00000000      20.00000000 </v>
    </varray>
    <i name="volume">  15188.51390911 </i>
    <varray name="rec_basis" >
     <v>       0.03392878       0.01955635       0.00000000 </v>
     <v>       0.00013030       0.03888536       0.00000000 </v>
     <v>       0.00000000       0.00000000       0.05000000 </v>
    </varray>
   </crystal>
   <varray name="positions" >
    <v>       0.27796181       0.57115673       0.52122395 </v>
    <v>       0.43204048       0.70845953       0.52274854 </v>
    <v>       0.29400675       0.72388104       0.52408425 </v>
    <v>       0.37681184       0.79518846       0.51791641 </v>
    <v>       0.42047008       0.62572243       0.51300033 </v>
    <v>       0.20633193       0.58202976       0.51548353 </v>
    <v>       0.70655991       0.42870135       0.50084668 </v>
    <v>       0.56803416       0.27627477       0.49225585 </v>
    <v>       0.72134797       0.29128160       0.49857596 </v>
    <v>       0.64383943       0.21140618       0.51395669 </v>
    <v>       0.56461015       0.35200947       0.51513978 </v>
    <v>       0.78602963       0.43126753       0.52385967 </v>
    <v>       0.44764672       0.01303285       0.53736683 </v>
    <v>       0.47453214       0.10652229       0.53795675 </v>
    <v>       0.53083025       0.88231975       0.57594842 </v>
    <v>       0.58028983       0.96875225       0.61976285 </v>
    <v>       0.57668694       0.01989134       0.58831501 </v>
    <v>       0.54617116       0.19585372       0.45462302 </v>
    <v>       0.54873664       0.19581885       0.54293150 </v>
    <v>       0.56489842       0.55112575       0.53064620 </v>
    <v>       0.63130653       0.52356753       0.53268668 </v>
    <v>       0.34930001       0.47256911       0.57471643 </v>
    <v>       0.38342738       0.42180228       0.62138880 </v>
    <v>       0.43773563       0.42269841       0.59187126 </v>
    <v>       0.64831901       0.45133508       0.46233963 </v>
    <v>       0.64253917       0.44557957       0.55027754 </v>
    <v>       0.98720458       0.43629169       0.54308382 </v>
    <v>       0.89303628       0.36934130       0.54664015 </v>
    <v>       0.12076920       0.65106237       0.57391322 </v>
    <v>       0.03463246       0.61603879       0.61925357 </v>
    <v>       0.98210615       0.56060790       0.59064607 </v>
    <v>       0.80231092       0.34992353       0.46510482 </v>
    <v>       0.80269739       0.35368525       0.55333901 </v>
    <v>       0.44370638       0.94819420       0.42557594 </v>
    <v>       0.41411697       0.85385859       0.42675348 </v>
    <v>       0.62344800       0.14397903       0.45290644 </v>
    <v>       0.59760826       0.05102866       0.45607152 </v>
    <v>       0.45638849       0.79000610       0.45709930 </v>
    <v>       0.47526202       0.79738291       0.54242446 </v>
    <v>       0.50412399       0.55245732       0.42548428 </v>
    <v>       0.44146420       0.58508038       0.42378839 </v>
    <v>       0.51442177       0.37058677       0.46685766 </v>
    <v>       0.44794115       0.39742424       0.46851255 </v>
    <v>       0.33547924       0.54752742       0.45278571 </v>
    <v>       0.32226227       0.52887958       0.53798104 </v>
    <v>       0.05027491       0.49419211       0.43064577 </v>
    <v>       0.14547021       0.55857446       0.42851010 </v>
    <v>       0.85428980       0.47886498       0.46164499 </v>
    <v>       0.94802556       0.54635133       0.46170119 </v>
    <v>       0.21173275       0.66587956       0.45492542 </v>
    <v>       0.20553707       0.67849414       0.54014185 </v>
    <v>       0.39650583       0.77598445       0.52659049 </v>
    <v>       0.38156243       0.60633952       0.52319802 </v>
    <v>       0.22564110       0.62074698       0.52510743 </v>
    <v>       0.62131818       0.22411746       0.49198151 </v>
    <v>       0.60039574       0.37545298       0.49468984 </v>
    <v>       0.77412678       0.39672766       0.50069920 </v>
    <v>       0.57282230       0.98453979       0.57931818 </v>
    <v>       0.40686497       0.42763049       0.58140894 </v>
    <v>       0.01780436       0.59161434       0.58002777 </v>
    <v>       0.36642960       0.72219756       0.52345819 </v>
    <v>       0.31132567       0.69901849       0.52307818 </v>
    <v>       0.27984264       0.64481166       0.52276308 </v>
    <v>       0.30308677       0.61331626       0.52153523 </v>
    <v>       0.35768012       0.63634622       0.52181550 </v>
    <v>       0.38957670       0.69108062       0.52224024 </v>
    <v>       0.64224839       0.27771952       0.49546169 </v>
    <v>       0.69734733       0.30960990       0.49828705 </v>
    <v>       0.72005898       0.36366458       0.50003010 </v>
    <v>       0.68800047       0.38646152       0.49969104 </v>
    <v>       0.63358224       0.35486668       0.49696088 </v>
    <v>       0.61053173       0.30016860       0.49499680 </v>
    <v>       0.51203881       0.89686422       0.54204481 </v>
    <v>       0.53016746       0.95059235       0.54039091 </v>
    <v>       0.50464466       0.96920486       0.49810965 </v>
    <v>       0.52079420       0.02524590       0.49699982 </v>
    <v>       0.48637233       0.04186174       0.51909810 </v>
    <v>       0.50156750       0.09443141       0.51928084 </v>
    <v>       0.55122419       0.13222629       0.49644079 </v>
    <v>       0.56557421       0.18867892       0.49723716 </v>
    <v>       0.38307532       0.48980790       0.54110318 </v>
    <v>       0.41744644       0.46994918       0.54111164 </v>
    <v>       0.46221280       0.49349205       0.49923131 </v>
    <v>       0.50141696       0.47620788       0.49987277 </v>
    <v>       0.55381017       0.51134710       0.51707301 </v>
    <v>       0.59104617       0.49574309       0.51812531 </v>
    <v>       0.57775676       0.44478805       0.50112678 </v>
    <v>       0.62011293       0.43041271       0.50301838 </v>
    <v>       0.10517837       0.61690823       0.54143428 </v>
    <v>       0.05091335       0.58154560       0.54147696 </v>
    <v>       0.03099745       0.53622370       0.50140293 </v>
    <v>       0.97447585       0.49630297       0.50243667 </v>
    <v>       0.95793275       0.44569105       0.52549960 </v>
    <v>       0.90495777       0.40812239       0.52736186 </v>
    <v>       0.86662967       0.41934716       0.50526009 </v>
    <v>       0.80971967       0.37696434       0.50707112 </v>
    <v>       0.47048106       0.86176487       0.50226527 </v>
    <v>       0.46282267       0.93347425       0.45850792 </v>
    <v>       0.44599935       0.88050791       0.45943756 </v>
    <v>       0.58523730       0.11570989       0.47312592 </v>
    <v>       0.57047737       0.06312191       0.47412810 </v>
    <v>       0.45117928       0.80422664       0.50623661 </v>
    <v>       0.39124119       0.53112083       0.50011878 </v>
    <v>       0.46993091       0.53502166       0.45826682 </v>
    <v>       0.43496343       0.55353845       0.45756402 </v>
    <v>       0.52585461       0.40995409       0.48286498 </v>
    <v>       0.48815867       0.42523330       0.48295950 </v>
    <v>       0.35415661       0.55210347       0.50246787 </v>
    <v>       0.13954890       0.60916253       0.50195841 </v>
    <v>       0.06599929       0.52891377       0.46195119 </v>
    <v>       0.11947630       0.56487420       0.46104454 </v>
    <v>       0.88303580       0.46947180       0.48121985 </v>
    <v>       0.93604981       0.50749876       0.48051600 </v>
    <v>       0.19770634       0.64711501       0.50450883 </v>
   </varray>
  </structure>
  <varray name="forces" >
   <v>      -0.00182021      -0.00230934      -0.00064710 </v>
   <v>       0.00112289      -0.00124290      -0.00065734 </v>
   <v>      -0.00193015      -0.00381366       0.00017919 </v>
   <v>      -0.00211115       0.00279189       0.00065275 </v>
   <v>       0.00379092      -0.00124741      -0.00012857 </v>
   <v>       0.00007251      -0.00268821      -0.00010968 </v>
   <v>      -0.00349242       0.00028683      -0.00148334 </v>
   <v>      -0.00254826       0.00002887       0.00382414 </v>
   <v>      -0.00159297       0.00235932      -0.00181181 </v>
   <v>      -0.00281368       0.00030469       0.00080898 </v>
   <v>      -0.00195531      -0.00013560       0.00362111 </v>
   <v>       0.00079001       0.00434751      -0.00294428 </v>
   <v>       0.00189786      -0.00125385      -0.00053167 </v>
   <v>       0.00009906      -0.00309993       0.00014543 </v>
   <v>       0.00067589       0.00180032       0.00053966 </v>
   <v>       0.00409703      -0.00088891      -0.00006437 </v>
   <v>       0.00486720      -0.00044958      -0.00151631 </v>
   <v>      -0.00108738      -0.00183589       0.00065905 </v>
   <v>      -0.00138680      -0.00140137       0.00129224 </v>
   <v>       0.00150215       0.00071534       0.00079357 </v>
   <v>       0.00002644       0.00038418       0.00397957 </v>
   <v>       0.00268540      -0.00040887       0.00068585 </v>
   <v>       0.00004196      -0.00305238      -0.00116120 </v>
   <v>      -0.00221895      -0.00239477      -0.00391257 </v>
   <v>       0.00009781      -0.00118186       0.00036789 </v>
   <v>       0.00091018      -0.00108958       0.00295156 </v>
   <v>      -0.00664420       0.00003959      -0.00047227 </v>
   <v>      -0.00277393       0.00156454      -0.00175110 </v>
   <v>      -0.00288998      -0.00033921      -0.00070574 </v>
   <v>       0.00047944       0.00208881       0.00008395 </v>
   <v>      -0.00099078      -0.00141193      -0.00268100 </v>
   <v>      -0.00143274       0.00000925       0.00060543 </v>
   <v>       0.00134010      -0.00023322      -0.00110061 </v>
   <v>       0.00102690      -0.00221588       0.00064037 </v>
   <v>       0.00202812      -0.00058578       0.00077792 </v>
   <v>       0.00201657      -0.00035353       0.00009844 </v>
   <v>       0.00274477      -0.00031841      -0.00088398 </v>
   <v>      -0.00128999      -0.00392778      -0.00223146 </v>
   <v>       0.00109874      -0.00116178       0.00269956 </v>
   <v>      -0.00068065       0.00614868       0.00053693 </v>
   <v>      -0.00142271       0.00268968       0.00077553 </v>
   <v>       0.00070847       0.00051840      -0.00000994 </v>
   <v>       0.00070734       0.00131705      -0.00336471 </v>
   <v>       0.00087742       0.00319058       0.00019540 </v>
   <v>       0.00477801      -0.00120433       0.00498426 </v>
   <v>      -0.00030608      -0.00004413       0.00016476 </v>
   <v>       0.00070433       0.00172498      -0.00213934 </v>
   <v>      -0.00354592       0.00143087      -0.00318384 </v>
   <v>      -0.00112730       0.00066059      -0.00052129 </v>
   <v>      -0.00400764       0.00147107      -0.00226821 </v>
   <v>      -0.00270663      -0.00052558       0.00204751 </v>
   <v>       0.00222001      -0.00499136       0.00082555 </v>
   <v>      -0.00083477      -0.00039057       0.00380950 </v>
   <v>      -0.00639063       0.00351219      -0.00190854 </v>
   <v>      -0.00091482       0.00096173      -0.00199839 </v>
   <v>      -0.00023353      -0.00217883      -0.00386239 </v>
   <v>      -0.00532604      -0.00461772       0.00395620 </v>
   <v>      -0.00024737       0.00162955      -0.00129776 </v>
   <v>       0.00036294       0.00446881       0.00456475 </v>
   <v>      -0.00036605       0.00120793      -0.00029740 </v>
   <v>       0.00450252      -0.00173257       0.00174236 </v>
   <v>       0.00457719       0.00384962      -0.00183886 </v>
   <v>      -0.00000528      -0.00003325       0.00272667 </v>
   <v>       0.00591298      -0.00051313       0.00009836 </v>
   <v>       0.00161905      -0.00113554      -0.00230296 </v>
   <v>      -0.00261645      -0.00017864       0.00136490 </v>
   <v>       0.00115235       0.00188817       0.00215377 </v>
   <v>      -0.00238109       0.00376891       0.00050832 </v>
   <v>      -0.00273799      -0.00342492      -0.00345085 </v>
   <v>       0.00397859       0.00262218       0.00135103 </v>
   <v>       0.00174946      -0.00013391       0.00034212 </v>
   <v>      -0.00065177      -0.00276000       0.00040711 </v>
   <v>       0.00259400       0.00216746      -0.00070139 </v>
   <v>       0.00258726      -0.00008435      -0.00122341 </v>
   <v>       0.00393648      -0.00188871      -0.00064277 </v>
   <v>       0.00315105      -0.00343653      -0.00031819 </v>
   <v>       0.00119340      -0.00229935       0.00022020 </v>
   <v>      -0.00035857      -0.00200303       0.00018106 </v>
   <v>       0.00177959       0.00142106      -0.00082592 </v>
   <v>       0.00220000       0.00270527      -0.00002978 </v>
   <v>       0.00059274      -0.00265624      -0.00295539 </v>
   <v>      -0.00216201      -0.00105650       0.00189145 </v>
   <v>      -0.00003207      -0.00492786       0.00055887 </v>
   <v>       0.00048960       0.00418171      -0.00241077 </v>
   <v>       0.00116754       0.00113372      -0.00141691 </v>
   <v>      -0.00038060       0.00134358      -0.00088801 </v>
   <v>      -0.00031999       0.00274205       0.00056114 </v>
   <v>      -0.00152621       0.00073798       0.00004325 </v>
   <v>       0.00028210       0.00294213       0.00086430 </v>
   <v>      -0.00047916       0.00107664       0.00263147 </v>
   <v>      -0.00397671      -0.00058931      -0.00159602 </v>
   <v>       0.00019588      -0.00306804       0.00104283 </v>
   <v>      -0.00103089       0.00063520       0.00069087 </v>
   <v>       0.00287866      -0.00069304       0.00010949 </v>
   <v>       0.00195144      -0.00008117      -0.00042944 </v>
   <v>      -0.00187346       0.00110729       0.00018979 </v>
   <v>       0.00203916       0.00059686      -0.00078608 </v>
   <v>       0.00083435      -0.00000986      -0.00316955 </v>
   <v>       0.00222472      -0.00027506      -0.00077075 </v>
   <v>      -0.00106030       0.00140382       0.00087665 </v>
   <v>      -0.00063076      -0.00143177       0.00082996 </v>
   <v>      -0.00394212       0.00076902       0.00286220 </v>
   <v>      -0.00179514      -0.00588244       0.00203929 </v>
   <v>       0.00007613       0.00120505      -0.00354843 </v>
   <v>      -0.00278705      -0.00119797       0.00058294 </v>
   <v>       0.00227699       0.00189500      -0.00196855 </v>
   <v>      -0.00043302       0.00259081      -0.00305256 </v>
   <v>      -0.00025831       0.00290719       0.00122806 </v>
   <v>       0.00140304       0.00368552       0.00221071 </v>
   <v>      -0.00136042      -0.00155193      -0.00049213 </v>
   <v>       0.00031709       0.00107130       0.00309206 </v>
   <v>       0.00006582       0.00077688      -0.00134767 </v>
   <v>       0.00124992       0.00025496       0.00038392 </v>
   <v>      -0.00286119      -0.00309338       0.00076043 </v>
  </varray>
  <varray name="stress" >
   <v>       0.01934372      -0.00054714       0.00228520 </v>
   <v>      -0.00054714       0.00849660      -0.00035016 </v>
   <v>       0.00228519      -0.00035016      -0.16173974 </v>
  </varray>
  <energy>
   <i name="e_fr_energy">   -750.98123146 </i>
   <i name="e_wo_entrp">   -750.98123146 </i>
   <i name="e_0_energy">     -0.00000000 </i>
  </energy>
  <time name="totalsc"> 8816.90 8914.95</time>
  <eigenvalues>
   <array>
    <dimension dim="1">band</dimension>
    <dimension dim="2">kpoint</dimension>
    <dimension dim="3">spin</dimension>
    <field>eigene</field>
    <field>occ</field>
    <set>
     <set comment="spin 1">
      <set comment="kpoint 1">
       <r>  -23.1903    1.0000 </r>
       <r>  -22.9739    1.0000 </r>
       <r>  -22.9679    1.0000 </r>
       <r>  -22.8129    1.0000 </r>
       <r>  -22.7621    1.0000 </r>
       <r>  -22.7582    1.0000 </r>
       <r>  -22.7225    1.0000 </r>
       <r>  -22.5519    1.0000 </r>
       <r>  -22.5489    1.0000 </r>
       <r>  -21.2277    1.0000 </r>
       <r>  -21.1889    1.0000 </r>
       <r>  -21.1819    1.0000 </r>
       <r>  -20.6167    1.0000 </r>
       <r>  -20.5311    1.0000 </r>
       <r>  -20.5288    1.0000 </r>
       <r>  -20.0756    1.0000 </r>
       <r>  -19.6340    1.0000 </r>
       <r>  -19.3673    1.0000 </r>
       <r>  -19.3630    1.0000 </r>
       <r>  -18.9664    1.0000 </r>
       <r>  -18.4850    1.0000 </r>
       <r>  -18.4830    1.0000 </r>
       <r>  -18.2589    1.0000 </r>
       <r>  -18.2494    1.0000 </r>
       <r>  -18.2401    1.0000 </r>
       <r>  -17.9757    1.0000 </r>
       <r>  -17.7013    1.0000 </r>
       <r>  -17.6988    1.0000 </r>
       <r>  -17.6493    1.0000 </r>
       <r>  -17.6489    1.0000 </r>
       <r>  -17.6164    1.0000 </r>
       <r>  -17.0646    1.0000 </r>
       <r>  -17.0629    1.0000 </r>
       <r>  -16.7320    1.0000 </r>
       <r>  -16.4409    1.0000 </r>
       <r>  -16.4346    1.0000 </r>
       <r>  -15.9477    1.0000 </r>
       <r>  -15.9113    1.0000 </r>
       <r>  -15.9047    1.0000 </r>
       <r>  -15.0112    1.0000 </r>
       <r>  -14.9929    1.0000 </r>
       <r>  -14.9471    1.0000 </r>
       <r>  -14.7486    1.0000 </r>
       <r>  -14.7471    1.0000 </r>
       <r>  -14.6493    1.0000 </r>
       <r>  -14.5267    1.0000 </r>
       <r>  -14.5144    1.0000 </r>
       <r>  -14.4573    1.0000 </r>
       <r>  -14.1448    1.0000 </r>
       <r>  -14.1398    1.0000 </r>
       <r>  -13.8755    1.0000 </r>
       <r>  -13.7909    1.0000 </r>
       <r>  -13.7795    1.0000 </r>
       <r>  -13.6515    1.0000 </r>
       <r>  -13.6491    1.0000 </r>
       <r>  -13.2900    1.0000 </r>
       <r>  -13.0484    1.0000 </r>
       <r>  -12.6751    1.0000 </r>
       <r>  -12.6674    1.0000 </r>
       <r>  -12.5376    1.0000 </r>
       <r>  -12.4551    1.0000 </r>
       <r>  -12.4364    1.0000 </r>
       <r>  -12.4300    1.0000 </r>
       <r>  -12.1371    1.0000 </r>
       <r>  -11.9998    1.0000 </r>
       <r>  -11.9963    1.0000 </r>
       <r>  -11.8220    1.0000 </r>
       <r>  -11.5606    1.0000 </r>
       <r>  -11.5509    1.0000 </r>
       <r>  -11.4360    1.0000 </r>
       <r>  -11.3955    1.0000 </r>
       <r>  -11.2777    1.0000 </r>
       <r>  -11.2697    1.0000 </r>
       <r>  -11.1539    1.0000 </r>
       <r>  -11.0539    1.0000 </r>
       <r>  -11.0459    1.0000 </r>
       <r>  -10.9262    1.0000 </r>
       <r>  -10.8136    1.0000 </r>
       <r>  -10.7892    1.0000 </r>
       <r>  -10.7585    1.0000 </r>
       <r>  -10.7176    1.0000 </r>
       <r>  -10.6642    1.0000 </r>
       <r>  -10.6538    1.0000 </r>
       <r>  -10.5807    1.0000 </r>
       <r>  -10.5742    1.0000 </r>
       <r>  -10.5036    1.0000 </r>
       <r>  -10.4085    1.0000 </r>
       <r>  -10.3940    1.0000 </r>
       <r>  -10.3766    1.0000 </r>
       <r>  -10.2722    1.0000 </r>
       <r>  -10.2579    1.0000 </r>
       <r>  -10.1098    1.0000 </r>
       <r>  -10.0994    1.0000 </r>
       <r>   -9.9601    1.0000 </r>
       <r>   -9.8996    1.0000 </r>
       <r>   -9.8953    1.0000 </r>
       <r>   -9.8871    1.0000 </r>
       <r>   -9.8623    1.0000 </r>
       <r>   -9.8560    1.0000 </r>
       <r>   -9.6949    1.0000 </r>
       <r>   -9.4934    1.0000 </r>
       <r>   -9.4860    1.0000 </r>
       <r>   -9.3923    1.0000 </r>
       <r>   -9.3628    1.0000 </r>
       <r>   -9.1929    1.0000 </r>
       <r>   -9.1868    1.0000 </r>
       <r>   -9.1163    1.0000 </r>
       <r>   -9.0681    1.0000 </r>
       <r>   -9.0629    1.0000 </r>
       <r>   -8.8732    1.0000 </r>
       <r>   -8.8170    1.0000 </r>
       <r>   -8.6879    1.0000 </r>
       <r>   -8.6682    1.0000 </r>
       <r>   -8.6366    1.0000 </r>
       <r>   -8.4486    1.0000 </r>
       <r>   -8.4439    1.0000 </r>
       <r>   -8.4053    1.0000 </r>
       <r>   -8.2677    1.0000 </r>
       <r>   -8.2586    1.0000 </r>
       <r>   -8.2525    1.0000 </r>
       <r>   -8.0821    1.0000 </r>
       <r>   -8.0782    1.0000 </r>
       <r>   -8.0142    1.0000 </r>
       <r>   -7.9339    1.0000 </r>
       <r>   -7.9239    1.0000 </r>
       <r>   -7.8915    1.0000 </r>
       <r>   -7.8905    1.0000 </r>
       <r>   -7.8475    1.0000 </r>
       <r>   -7.6429    1.0000 </r>
       <r>   -7.6341    1.0000 </r>
       <r>   -7.6310    1.0000 </r>
       <r>   -7.2366    1.0000 </r>
       <r>   -7.2266    1.0000 </r>
       <r>   -7.2232    1.0000 </r>
       <r>   -7.1822    1.0000 </r>
       <r>   -7.1754    1.0000 </r>
       <r>   -6.7238    1.0000 </r>
       <r>   -6.7175    1.0000 </r>
       <r>   -6.1838    1.0000 </r>
       <r>   -6.1743    1.0000 </r>
       <r>   -6.1703    1.0000 </r>
       <r>   -6.1617    1.0000 </r>
       <r>   -6.1027    1.0000 </r>
       <r>   -6.0847    1.0000 </r>
       <r>   -5.5966    1.0000 </r>
       <r>   -5.5607    1.0000 </r>
       <r>   -5.5361    1.0000 </r>
       <r>   -4.9842    1.0000 </r>
       <r>   -4.7117    1.0000 </r>
       <r>   -4.6576    1.0000 </r>
       <r>   -4.6522    1.0000 </r>
       <r>   -4.5230    1.0000 </r>
       <r>   -4.1926    1.0000 </r>
       <r>   -4.1869    1.0000 </r>
       <r>   -3.7575    1.0000 </r>
       <r>   -3.7550    1.0000 </r>
       <r>   -1.3451    0.0000 </r>
       <r>   -1.3187    0.0000 </r>
       <r>   -1.3173    0.0000 </r>
       <r>   -1.1308    0.0000 </r>
       <r>   -1.1176    0.0000 </r>
       <r>   -1.1050    0.0000 </r>
       <r>   -0.6747    0.0000 </r>
       <r>   -0.6662    0.0000 </r>
       <r>   -0.6607    0.0000 </r>
       <r>   -0.5130    0.0000 </r>
       <r>   -0.4813    0.0000 </r>
       <r>   -0.4638    0.0000 </r>
       <r>   -0.4265    0.0000 </r>
       <r>   -0.3783    0.0000 </r>
       <r>   -0.3654    0.0000 </r>
       <r>   -0.2059    0.0000 </r>
       <r>   -0.1901    0.0000 </r>
       <r>   -0.1839    0.0000 </r>
       <r>   -0.0287    0.0000 </r>
       <r>   -0.0143    0.0000 </r>
       <r>   -0.0092    0.0000 </r>
       <r>    0.0457    0.0000 </r>
       <r>    0.0477    0.0000 </r>
       <r>    0.1881    0.0000 </r>
       <r>    0.1930    0.0000 </r>
       <r>    0.2405    0.0000 </r>
       <r>    0.2686    0.0000 </r>
       <r>    0.3100    0.0000 </r>
       <r>    0.3121    0.0000 </r>
       <r>    0.3826    0.0000 </r>
       <r>    0.3860    0.0000 </r>
       <r>    0.3901    0.0000 </r>
       <r>    0.4289    0.0000 </r>
       <r>    0.4830    0.0000 </r>
       <r>    0.5419    0.0000 </r>
       <r>    0.5533    0.0000 </r>
       <r>    0.6158    0.0000 </r>
       <r>    0.6197    0.0000 </r>
       <r>    0.6499    0.0000 </r>
       <r>    0.6823    0.0000 </r>
       <r>    0.7073    0.0000 </r>
       <r>    0.7131    0.0000 </r>
       <r>    0.7223    0.0000 </r>
       <r>    0.7282    0.0000 </r>
       <r>    0.7369    0.0000 </r>
       <r>    0.7542    0.0000 </r>
       <r>    0.7667    0.0000 </r>
       <r>    0.7722    0.0000 </r>
       <r>    0.8284    0.0000 </r>
       <r>    0.8574    0.0000 </r>
       <r>    0.8648    0.0000 </r>
       <r>    0.8670    0.0000 </r>
       <r>    0.8769    0.0000 </r>
       <r>    0.8959    0.0000 </r>
       <r>    0.9041    0.0000 </r>
       <r>    0.9899    0.0000 </r>
       <r>    0.9944    0.0000 </r>
       <r>    0.9996    0.0000 </r>
       <r>    1.0510    0.0000 </r>
       <r>    1.0575    0.0000 </r>
       <r>    1.0865    0.0000 </r>
       <r>    1.1127    0.0000 </r>
       <r>    1.1242    0.0000 </r>
       <r>    1.1467    0.0000 </r>
       <r>    1.1859    0.0000 </r>
       <r>    1.1988    0.0000 </r>
       <r>    1.2011    0.0000 </r>
       <r>    1.2240    0.0000 </r>
      </set>
      <set comment="kpoint 2">
       <r>  -23.1903    1.0000 </r>
       <r>  -22.9739    1.0000 </r>
       <r>  -22.9679    1.0000 </r>
       <r>  -22.8129    1.0000 </r>
       <r>  -22.7621    1.0000 </r>
       <r>  -22.7582    1.0000 </r>
       <r>  -22.7225    1.0000 </r>
       <r>  -22.5519    1.0000 </r>
       <r>  -22.5489    1.0000 </r>
       <r>  -21.2277    1.0000 </r>
       <r>  -21.1889    1.0000 </r>
       <r>  -21.1819    1.0000 </r>
       <r>  -20.6167    1.0000 </r>
       <r>  -20.5312    1.0000 </r>
       <r>  -20.5288    1.0000 </r>
       <r>  -20.0755    1.0000 </r>
       <r>  -19.6344    1.0000 </r>
       <r>  -19.3669    1.0000 </r>
       <r>  -19.3627    1.0000 </r>
       <r>  -18.9672    1.0000 </r>
       <r>  -18.4848    1.0000 </r>
       <r>  -18.4824    1.0000 </r>
       <r>  -18.2589    1.0000 </r>
       <r>  -18.2494    1.0000 </r>
       <r>  -18.2401    1.0000 </r>
       <r>  -17.9768    1.0000 </r>
       <r>  -17.7013    1.0000 </r>
       <r>  -17.6987    1.0000 </r>
       <r>  -17.6499    1.0000 </r>
       <r>  -17.6490    1.0000 </r>
       <r>  -17.6148    1.0000 </r>
       <r>  -17.0654    1.0000 </r>
       <r>  -17.0630    1.0000 </r>
       <r>  -16.7312    1.0000 </r>
       <r>  -16.4411    1.0000 </r>
       <r>  -16.4347    1.0000 </r>
       <r>  -15.9478    1.0000 </r>
       <r>  -15.9113    1.0000 </r>
       <r>  -15.9046    1.0000 </r>
       <r>  -15.0113    1.0000 </r>
       <r>  -14.9929    1.0000 </r>
       <r>  -14.9471    1.0000 </r>
       <r>  -14.7484    1.0000 </r>
       <r>  -14.7468    1.0000 </r>
       <r>  -14.6492    1.0000 </r>
       <r>  -14.5269    1.0000 </r>
       <r>  -14.5147    1.0000 </r>
       <r>  -14.4576    1.0000 </r>
       <r>  -14.1446    1.0000 </r>
       <r>  -14.1394    1.0000 </r>
[...]
       <r>   -19.5762     2.9599    34.0000 </r>
       <r>   -19.4867     0.0000    34.0000 </r>
       <r>   -19.3971     0.0001    34.0000 </r>
       <r>   -19.3076    26.1211    36.3388 </r>
       <r>   -19.2180     9.9609    37.2595 </r>
       <r>   -19.1285    10.4237    38.4390 </r>
       <r>   -19.0390    10.9213    39.6184 </r>
       <r>   -18.9494     4.0589    39.9994 </r>
       <r>   -18.8599     0.0000    40.0000 </r>
       <r>   -18.7704     0.0000    40.0000 </r>
       <r>   -18.6808     0.0000    40.0000 </r>
       <r>   -18.5913     0.0000    40.0000 </r>
       <r>   -18.5017     0.1422    40.0127 </r>
       <r>   -18.4122    26.2911    42.3668 </r>
       <r>   -18.3227    11.8908    43.4650 </r>
       <r>   -18.2331    61.9570    49.2598 </r>
       <r>   -18.1436    12.3499    51.1058 </r>
       <r>   -18.0540     2.5639    51.6636 </r>
       <r>   -17.9645     3.3078    51.9963 </r>
       <r>   -17.8750     0.0000    52.0000 </r>
       <r>   -17.7854     0.0000    52.0000 </r>
       <r>   -17.6959    23.6262    54.1155 </r>
       <r>   -17.6064    45.7517    60.0966 </r>
       <r>   -17.5168     2.5900    60.3670 </r>
       <r>   -17.4273    10.7732    61.3647 </r>
       <r>   -17.3377     3.6185    62.0000 </r>
       <r>   -17.2482     1.0378    62.0929 </r>
       <r>   -17.1587    13.6504    63.5976 </r>
       <r>   -17.0691     7.9897    64.3489 </r>
       <r>   -16.9796     0.0000    66.0000 </r>
       <r>   -16.8901     0.0000    66.0000 </r>
       <r>   -16.8005     0.0000    66.0000 </r>
       <r>   -16.7110     2.1341    66.1911 </r>
       <r>   -16.6214     3.7334    66.5686 </r>
       <r>   -16.5319    14.7239    68.0170 </r>
       <r>   -16.4424    26.8663    70.4226 </r>
       <r>   -16.3528     0.0000    72.0000 </r>
       <r>   -16.2633     0.0000    72.0000 </r>
       <r>   -16.1737     0.0000    72.0000 </r>
       <r>   -16.0842     0.0000    72.0000 </r>
       <r>   -15.9947     0.0000    72.0000 </r>
       <r>   -15.9051    41.6786    75.7318 </r>
       <r>   -15.8156     0.0000    78.0000 </r>
       <r>   -15.7261     0.0000    78.0000 </r>
       <r>   -15.6365     0.0000    78.0000 </r>
       <r>   -15.5470     0.0000    78.0000 </r>
       <r>   -15.4574     0.0000    78.0000 </r>
       <r>   -15.3679     0.0000    78.0000 </r>
       <r>   -15.2784     0.0000    78.0000 </r>
       <r>   -15.1888     0.0000    78.0000 </r>
       <r>   -15.0993     0.0000    78.0000 </r>
       <r>   -15.0097    24.7037    80.2119 </r>
       <r>   -14.9202    26.6671    83.9998 </r>
       <r>   -14.8307     0.0000    84.0000 </r>
       <r>   -14.7411     3.7071    84.3319 </r>
       <r>   -14.6516    49.5614    89.0249 </r>
       <r>   -14.5621    19.3517    91.7327 </r>
       <r>   -14.4725    39.2034    95.5867 </r>
       <r>   -14.3830     1.9794    96.0000 </r>
       <r>   -14.2934     0.0000    96.0000 </r>
       <r>   -14.2039     0.0000    96.0000 </r>
       <r>   -14.1144    19.6479    97.7592 </r>
       <r>   -14.0248    18.5933    99.9996 </r>
       <r>   -13.9353    17.3740   101.5556 </r>
       <r>   -13.8458     4.4463   102.0000 </r>
       <r>   -13.7562    31.9824   104.8637 </r>
       <r>   -13.6667     1.1411   106.1022 </r>
       <r>   -13.5771    43.5326   110.0000 </r>
       <r>   -13.4876     0.0000   110.0000 </r>
       <r>   -13.3981     0.0000   110.0000 </r>
       <r>   -13.3085     0.0855   110.0077 </r>
       <r>   -13.2190    22.2513   112.0000 </r>
       <r>   -13.1294     0.0000   112.0000 </r>
       <r>   -13.0399    19.5792   113.7531 </r>
       <r>   -12.9504     0.0000   114.0000 </r>
       <r>   -12.8608     0.0000   114.0000 </r>
       <r>   -12.7713     0.0000   114.0000 </r>
       <r>   -12.6818     3.4818   114.3118 </r>
       <r>   -12.5922    34.9319   118.7730 </r>
       <r>   -12.5027     6.4683   120.0000 </r>
       <r>   -12.4131    63.3526   125.6725 </r>
       <r>   -12.3236     0.0000   126.0000 </r>
       <r>   -12.2341     0.0000   126.0000 </r>
       <r>   -12.1445    20.5904   127.8436 </r>
       <r>   -12.0550     0.0000   128.0000 </r>
       <r>   -11.9654    44.6731   132.0000 </r>
       <r>   -11.8759     0.0000   132.0000 </r>
       <r>   -11.7864     3.3746   132.3022 </r>
       <r>   -11.6968    18.1972   133.9652 </r>
       <r>   -11.6073    14.6090   135.3081 </r>
       <r>   -11.5178    27.8957   138.0000 </r>
       <r>   -11.4282    21.7465   139.9471 </r>
       <r>   -11.3387    22.3366   142.0000 </r>
       <r>   -11.2491    44.6491   145.9978 </r>
       <r>   -11.1596    16.6676   147.4924 </r>
       <r>   -11.0701     0.0576   148.0052 </r>
       <r>   -10.9805    44.6161   152.0000 </r>
       <r>   -10.8910    22.3368   154.0000 </r>
       <r>   -10.8015    21.9747   155.9676 </r>
       <r>   -10.7119    49.1447   160.6244 </r>
       <r>   -10.6224    44.6736   166.0000 </r>
       <r>   -10.5328    46.1413   170.1314 </r>
       <r>   -10.4433    14.3185   172.0611 </r>
       <r>   -10.3538    44.9926   176.3041 </r>
       <r>   -10.2642    23.8518   178.5048 </r>
       <r>   -10.1747    43.3655   183.2332 </r>
       <r>   -10.0851    28.0052   185.9923 </r>
       <r>    -9.9956     0.0000   186.0000 </r>
       <r>    -9.9061    44.0714   189.9461 </r>
       <r>    -9.8165    86.8526   198.0000 </r>
       <r>    -9.7270     0.0000   198.0000 </r>
       <r>    -9.6375    22.3368   200.0000 </r>
       <r>    -9.5479     0.0000   200.0000 </r>
       <r>    -9.4584    44.6734   204.0000 </r>
       <r>    -9.3688    18.1583   205.6259 </r>
       <r>    -9.2793    20.7032   207.9910 </r>
       <r>    -9.1898    32.2334   210.8861 </r>
       <r>    -9.1002    22.3216   213.9986 </r>
       <r>    -9.0107    44.6734   218.0000 </r>
       <r>    -8.9212     0.0000   218.0000 </r>
       <r>    -8.8316    24.3532   220.1805 </r>
       <r>    -8.7421     5.5655   222.0028 </r>
       <r>    -8.6525    44.5681   225.9933 </r>
       <r>    -8.5630    12.5543   227.1251 </r>
       <r>    -8.4735    22.7958   229.6866 </r>
       <r>    -8.3839    37.1778   233.0817 </r>
       <r>    -8.2944     1.8691   234.1674 </r>
       <r>    -8.2048    50.6627   239.6767 </r>
       <r>    -8.1153    13.5528   241.2135 </r>
       <r>    -8.0258    26.6709   244.0076 </r>
       <r>    -7.9362    25.8756   246.3245 </r>
       <r>    -7.8467    98.7275   255.8603 </r>
       <r>    -7.7572     0.0000   256.0000 </r>
       <r>    -7.6676     0.0081   256.0007 </r>
       <r>    -7.5781    67.0024   262.0000 </r>
       <r>    -7.4885     0.0000   262.0000 </r>
       <r>    -7.3990     0.0000   262.0000 </r>
       <r>    -7.3095     0.0000   262.0000 </r>
       <r>    -7.2199    54.2193   266.8547 </r>
       <r>    -7.1304    44.6737   272.0000 </r>
       <r>    -7.0408     0.0000   272.0000 </r>
       <r>    -6.9513     0.0000   272.0000 </r>
       <r>    -6.8618     0.0000   272.0000 </r>
       <r>    -6.7722     0.0000   272.0000 </r>
       <r>    -6.6827    44.6737   276.0000 </r>
       <r>    -6.5932     0.0000   276.0000 </r>
       <r>    -6.5036     0.0000   276.0000 </r>
       <r>    -6.4141     0.0000   276.0000 </r>
       <r>    -6.3245     0.0000   276.0000 </r>
       <r>    -6.2350     0.0000   276.0000 </r>
       <r>    -6.1455    86.9362   283.7841 </r>
       <r>    -6.0559    44.6735   288.0000 </r>
       <r>    -5.9664     0.0000   288.0000 </r>
       <r>    -5.8769     0.0000   288.0000 </r>
       <r>    -5.7873     0.0000   288.0000 </r>
       <r>    -5.6978     0.0000   288.0000 </r>
       <r>    -5.6082     0.2737   288.0245 </r>
       <r>    -5.5187    66.6538   293.9926 </r>
       <r>    -5.4292     0.0000   294.0000 </r>
       <r>    -5.3396     0.0000   294.0000 </r>
       <r>    -5.2501     0.0000   294.0000 </r>
       <r>    -5.1605     0.0000   294.0000 </r>
       <r>    -5.0710     0.0000   294.0000 </r>
       <r>    -4.9815    14.3713   295.2868 </r>
       <r>    -4.8919     0.0000   296.0000 </r>
       <r>    -4.8024     0.0000   296.0000 </r>
       <r>    -4.7129    13.4836   297.2073 </r>
       <r>    -4.6233    44.6708   301.9997 </r>
       <r>    -4.5338     1.8376   302.1645 </r>
       <r>    -4.4442    20.4993   304.0000 </r>
       <r>    -4.3547     0.0000   304.0000 </r>
       <r>    -4.2652     0.0000   304.0000 </r>
       <r>    -4.1756    43.2582   307.8733 </r>
       <r>    -4.0861     0.0000   308.0000 </r>
       <r>    -3.9965     0.0000   308.0000 </r>
       <r>    -3.9070     0.0000   308.0000 </r>
       <r>    -3.8175     0.0000   308.0000 </r>
       <r>    -3.7279    44.6719   311.9998 </r>
       <r>    -3.6384     0.0000   312.0000 </r>
       <r>    -3.5489     0.0000   312.0000 </r>
       <r>    -3.4593     0.0000   312.0000 </r>
       <r>    -3.3698     0.0000   312.0000 </r>
       <r>    -3.2802     0.0000   312.0000 </r>
       <r>    -3.1907     0.0000   312.0000 </r>
       <r>    -3.1012     0.0000   312.0000 </r>
       <r>    -3.0116     0.0000   312.0000 </r>
       <r>    -2.9221     0.0000   312.0000 </r>
       <r>    -2.8326     0.0000   312.0000 </r>
       <r>    -2.7430     0.0000   312.0000 </r>
       <r>    -2.6535     0.0000   312.0000 </r>
       <r>    -2.5639     0.0000   312.0000 </r>
       <r>    -2.4744     0.0000   312.0000 </r>
       <r>    -2.3849     0.0000   312.0000 </r>
       <r>    -2.2953     0.0000   312.0000 </r>
       <r>    -2.2058     0.0000   312.0000 </r>
       <r>    -2.1162     0.0000   312.0000 </r>
       <r>    -2.0267     0.0000   312.0000 </r>
       <r>    -1.9372     0.0000   312.0000 </r>
       <r>    -1.8476     0.0000   312.0000 </r>
       <r>    -1.7581     0.0000   312.0000 </r>
       <r>    -1.6686     0.0000   312.0000 </r>
       <r>    -1.5790     0.0000   312.0000 </r>
       <r>    -1.4895     0.0000   312.0000 </r>
       <r>    -1.3999     0.0000   312.0000 </r>
       <r>    -1.3104    59.6906   317.3446 </r>
       <r>    -1.2209     0.0000   318.0000 </r>
       <r>    -1.1313    11.1442   318.9978 </r>
       <r>    -1.0418    44.0630   324.0000 </r>
       <r>    -0.9523     0.0000   324.0000 </r>
       <r>    -0.8627     0.0000   324.0000 </r>
       <r>    -0.7732     0.0000   324.0000 </r>
       <r>    -0.6836     2.5082   324.2246 </r>
       <r>    -0.5941    44.5350   330.0000 </r>
       <r>    -0.5046    15.7515   331.4104 </r>
       <r>    -0.4150    66.8164   337.9834 </r>
       <r>    -0.3255    44.6737   342.0000 </r>
       <r>    -0.2359     0.0106   342.0009 </r>
       <r>    -0.1464    57.7203   347.1691 </r>
       <r>    -0.0569     4.4277   348.3964 </r>
       <r>     0.0327    83.5580   356.8052 </r>
       <r>     0.1222     4.6496   358.0000 </r>
       <r>     0.2117    42.8587   361.8375 </r>
       <r>     0.3013    39.3756   365.5261 </r>
       <r>     0.3908    48.6308   371.3805 </r>
       <r>     0.4804    61.3946   377.9856 </r>
       <r>     0.5699    71.0008   385.0410 </r>
       <r>     0.6594    79.2934   393.0311 </r>
       <r>     0.7490    85.8260   401.2988 </r>
       <r>     0.8385    76.4344   409.3117 </r>
       <r>     0.9281    91.3985   418.0856 </r>
       <r>     1.0176    91.2495   427.6594 </r>
       <r>     1.1071    90.6993   437.1277 </r>
       <r>     1.1967    85.7226   445.7301 </r>
       <r>     1.2862    11.4076   448.0000 </r>
       <r>     1.3757     0.0000   448.0000 </r>
       <r>     1.4653     0.0000   448.0000 </r>
       <r>     1.5548     0.0000   448.0000 </r>
       <r>     1.6444     0.0000   448.0000 </r>
       <r>     1.7339     0.0000   448.0000 </r>
       <r>     1.8234     0.0000   448.0000 </r>
       <r>     1.9130     0.0000   448.0000 </r>
       <r>     2.0025     0.0000   448.0000 </r>
       <r>     2.0920     0.0000   448.0000 </r>
       <r>     2.1816     0.0000   448.0000 </r>
       <r>     2.2711     0.0000   448.0000 </r>
       <r>     2.3607     0.0000   448.0000 </r>
       <r>     2.4502     0.0000   448.0000 </r>
      </set>
     </set>
    </array>
   </total>
  </dos>
 </calculation>
 <structure name="finalpos" >
  <crystal>
   <varray name="basis" >
    <v>      29.53054240      -0.09895526       0.00000000 </v>
    <v>     -14.85159669      25.76638549       0.00000000 </v>
    <v>       0.00000000       0.00000000      20.00000000 </v>
   </varray>
   <i name="volume">  15188.51390911 </i>
   <varray name="rec_basis" >
    <v>       0.03392878       0.01955635       0.00000000 </v>
    <v>       0.00013030       0.03888536       0.00000000 </v>
    <v>       0.00000000       0.00000000       0.05000000 </v>
   </varray>
  </crystal>
  <varray name="positions" >
   <v>       0.27796181       0.57115673       0.52122395 </v>
   <v>       0.43204048       0.70845953       0.52274854 </v>
   <v>       0.29400675       0.72388104       0.52408425 </v>
   <v>       0.37681184       0.79518846       0.51791641 </v>
   <v>       0.42047008       0.62572243       0.51300033 </v>
   <v>       0.20633193       0.58202976       0.51548353 </v>
   <v>       0.70655991       0.42870135       0.50084668 </v>
   <v>       0.56803416       0.27627477       0.49225585 </v>
   <v>       0.72134797       0.29128160       0.49857596 </v>
   <v>       0.64383943       0.21140618       0.51395669 </v>
   <v>       0.56461015       0.35200947       0.51513978 </v>
   <v>       0.78602963       0.43126753       0.52385967 </v>
   <v>       0.44764672       0.01303285       0.53736683 </v>
   <v>       0.47453214       0.10652229       0.53795675 </v>
   <v>       0.53083025       0.88231975       0.57594842 </v>
   <v>       0.58028983       0.96875225       0.61976285 </v>
   <v>       0.57668694       0.01989134       0.58831501 </v>
   <v>       0.54617116       0.19585372       0.45462302 </v>
   <v>       0.54873664       0.19581885       0.54293150 </v>
   <v>       0.56489842       0.55112575       0.53064620 </v>
   <v>       0.63130653       0.52356753       0.53268668 </v>
   <v>       0.34930001       0.47256911       0.57471643 </v>
   <v>       0.38342738       0.42180228       0.62138880 </v>
   <v>       0.43773563       0.42269841       0.59187126 </v>
   <v>       0.64831901       0.45133508       0.46233963 </v>
   <v>       0.64253917       0.44557957       0.55027754 </v>
   <v>       0.98720458       0.43629169       0.54308382 </v>
   <v>       0.89303628       0.36934130       0.54664015 </v>
   <v>       0.12076920       0.65106237       0.57391322 </v>
   <v>       0.03463246       0.61603879       0.61925357 </v>
   <v>       0.98210615       0.56060790       0.59064607 </v>
   <v>       0.80231092       0.34992353       0.46510482 </v>
   <v>       0.80269739       0.35368525       0.55333901 </v>
   <v>       0.44370638       0.94819420       0.42557594 </v>
   <v>       0.41411697       0.85385859       0.42675348 </v>
   <v>       0.62344800       0.14397903       0.45290644 </v>
   <v>       0.59760826       0.05102866       0.45607152 </v>
   <v>       0.45638849       0.79000610       0.45709930 </v>
   <v>       0.47526202       0.79738291       0.54242446 </v>
   <v>       0.50412399       0.55245732       0.42548428 </v>
   <v>       0.44146420       0.58508038       0.42378839 </v>
   <v>       0.51442177       0.37058677       0.46685766 </v>
   <v>       0.44794115       0.39742424       0.46851255 </v>
   <v>       0.33547924       0.54752742       0.45278571 </v>
   <v>       0.32226227       0.52887958       0.53798104 </v>
   <v>       0.05027491       0.49419211       0.43064577 </v>
   <v>       0.14547021       0.55857446       0.42851010 </v>
   <v>       0.85428980       0.47886498       0.46164499 </v>
   <v>       0.94802556       0.54635133       0.46170119 </v>
   <v>       0.21173275       0.66587956       0.45492542 </v>
   <v>       0.20553707       0.67849414       0.54014185 </v>
   <v>       0.39650583       0.77598445       0.52659049 </v>
   <v>       0.38156243       0.60633952       0.52319802 </v>
   <v>       0.22564110       0.62074698       0.52510743 </v>
   <v>       0.62131818       0.22411746       0.49198151 </v>
   <v>       0.60039574       0.37545298       0.49468984 </v>
   <v>       0.77412678       0.39672766       0.50069920 </v>
   <v>       0.57282230       0.98453979       0.57931818 </v>
   <v>       0.40686497       0.42763049       0.58140894 </v>
   <v>       0.01780436       0.59161434       0.58002777 </v>
   <v>       0.36642960       0.72219756       0.52345819 </v>
   <v>       0.31132567       0.69901849       0.52307818 </v>
   <v>       0.27984264       0.64481166       0.52276308 </v>
   <v>       0.30308677       0.61331626       0.52153523 </v>
   <v>       0.35768012       0.63634622       0.52181550 </v>
   <v>       0.38957670       0.69108062       0.52224024 </v>
   <v>       0.64224839       0.27771952       0.49546169 </v>
   <v>       0.69734733       0.30960990       0.49828705 </v>
   <v>       0.72005898       0.36366458       0.50003010 </v>
   <v>       0.68800047       0.38646152       0.49969104 </v>
   <v>       0.63358224       0.35486668       0.49696088 </v>
   <v>       0.61053173       0.30016860       0.49499680 </v>
   <v>       0.51203881       0.89686422       0.54204481 </v>
   <v>       0.53016746       0.95059235       0.54039091 </v>
   <v>       0.50464466       0.96920486       0.49810965 </v>
   <v>       0.52079420       0.02524590       0.49699982 </v>
   <v>       0.48637233       0.04186174       0.51909810 </v>
   <v>       0.50156750       0.09443141       0.51928084 </v>
   <v>       0.55122419       0.13222629       0.49644079 </v>
   <v>       0.56557421       0.18867892       0.49723716 </v>
   <v>       0.38307532       0.48980790       0.54110318 </v>
   <v>       0.41744644       0.46994918       0.54111164 </v>
   <v>       0.46221280       0.49349205       0.49923131 </v>
   <v>       0.50141696       0.47620788       0.49987277 </v>
   <v>       0.55381017       0.51134710       0.51707301 </v>
   <v>       0.59104617       0.49574309       0.51812531 </v>
   <v>       0.57775676       0.44478805       0.50112678 </v>
   <v>       0.62011293       0.43041271       0.50301838 </v>
   <v>       0.10517837       0.61690823       0.54143428 </v>
   <v>       0.05091335       0.58154560       0.54147696 </v>
   <v>       0.03099745       0.53622370       0.50140293 </v>
   <v>       0.97447585       0.49630297       0.50243667 </v>
   <v>       0.95793275       0.44569105       0.52549960 </v>
   <v>       0.90495777       0.40812239       0.52736186 </v>
   <v>       0.86662967       0.41934716       0.50526009 </v>
   <v>       0.80971967       0.37696434       0.50707112 </v>
   <v>       0.47048106       0.86176487       0.50226527 </v>
   <v>       0.46282267       0.93347425       0.45850792 </v>
   <v>       0.44599935       0.88050791       0.45943756 </v>
   <v>       0.58523730       0.11570989       0.47312592 </v>
   <v>       0.57047737       0.06312191       0.47412810 </v>
   <v>       0.45117928       0.80422664       0.50623661 </v>
   <v>       0.39124119       0.53112083       0.50011878 </v>
   <v>       0.46993091       0.53502166       0.45826682 </v>
   <v>       0.43496343       0.55353845       0.45756402 </v>
   <v>       0.52585461       0.40995409       0.48286498 </v>
   <v>       0.48815867       0.42523330       0.48295950 </v>
   <v>       0.35415661       0.55210347       0.50246787 </v>
   <v>       0.13954890       0.60916253       0.50195841 </v>
   <v>       0.06599929       0.52891377       0.46195119 </v>
   <v>       0.11947630       0.56487420       0.46104454 </v>
   <v>       0.88303580       0.46947180       0.48121985 </v>
   <v>       0.93604981       0.50749876       0.48051600 </v>
   <v>       0.19770634       0.64711501       0.50450883 </v>
  </varray>
 </structure>
</modeling>
