<?xml version="1.0" encoding="ISO-8859-1"?>
<modeling>
 <generator>
  <i name="program" type="string">vasp </i>
  <i name="version" type="string">5.4.4.18Apr17-6-g9f103f2a35  </i>
  <i name="subversion" type="string">(build Jun 07 2020 16:50:00) complex            parallel </i>
  <i name="platform" type="string">LinuxIFC </i>
  <i name="date" type="string">2023 02 19 </i>
  <i name="time" type="string">03:49:08 </i>
 </generator>
 <incar>
  <i type="string" name="SYSTEM">Simulation for cell shape cell volume r</i>
  <i type="int" name="ISTART">     1</i>
  <i type="string" name="PREC">high</i>
  <i type="string" name="ALGO">48</i>
  <i type="int" name="ICHARG">    11</i>
  <i type="int" name="NELM">   200</i>
  <i type="int" name="IBRION">    -1</i>
  <i name="EDIFF">      0.00001000</i>
  <i name="EDIFFG">     -0.01000000</i>
  <i type="int" name="NSW">     0</i>
  <i type="int" name="ISIF">     2</i>
  <i name="ENCUT">    500.00000000</i>
  <i name="POTIM">      0.30000000</i>
  <i type="string" name="LREAL">A</i>
  <i type="int" name="ISMEAR">     0</i>
  <i name="SIGMA">      0.01000000</i>
  <i type="int" name="NWRITE">     0</i>
  <i type="logical" name="LWAVE"> F  </i>
  <i type="logical" name="LCHARG"> F  </i>
  <v type="int" name="KPOINT_BSE">    -1     0     0     0</v>
  <i type="int" name="NELM">   200</i>
  <i type="string" name="GGA">PE</i>
 </incar>
 <structure name="primitive_cell" >
  <crystal>
   <varray name="basis" >
    <v>      23.07540152      -0.00246572       0.00000000 </v>
    <v>     -11.53983848      19.97992940       0.00000000 </v>
    <v>       0.00000000       0.00000000      20.00000000 </v>
   </varray>
   <i name="volume">   9220.32878253 </i>
   <varray name="rec_basis" >
    <v>       0.04333887       0.02503129       0.00000000 </v>
    <v>       0.00000535       0.05005332       0.00000000 </v>
    <v>       0.00000000       0.00000000       0.05000000 </v>
   </varray>
  </crystal>
  <varray name="positions" >
   <v>       0.23159392      -0.26766210      -0.42793124 </v>
   <v>       0.20560581      -0.29596034      -0.48677418 </v>
   <v>       0.28576760      -0.20621835      -0.42670687 </v>
   <v>       0.22727364      -0.25574682       0.45478434 </v>
   <v>       0.31964847      -0.17761415      -0.48750714 </v>
   <v>       0.16397723      -0.37011941      -0.48947873 </v>
   <v>       0.31007863      -0.17161330      -0.36097924 </v>
   <v>       0.28814040      -0.32732725      -0.47781086 </v>
   <v>       0.28598621      -0.19911572       0.45466039 </v>
   <v>       0.27988169      -0.19282506      -0.30845448 </v>
   <v>       0.19840737      -0.40608948      -0.48709369 </v>
   <v>       0.26675669      -0.37601498      -0.48264519 </v>
   <v>       0.19881779      -0.27122629       0.40813838 </v>
   <v>       0.35849732      -0.12335830      -0.36351770 </v>
   <v>       0.09438282      -0.40496135      -0.49415580 </v>
   <v>       0.38945624      -0.24066642      -0.48152186 </v>
   <v>       0.06960702      -0.37531372      -0.49429160 </v>
   <v>       0.39378081      -0.13608234      -0.49030132 </v>
   <v>       0.42786484      -0.17236034      -0.48655677 </v>
   <v>       0.41676396      -0.26208948      -0.47726688 </v>
   <v>       0.16225541      -0.47646173      -0.49091907 </v>
   <v>       0.05675299      -0.47533601      -0.49683169 </v>
   <v>       0.43007261      -0.06665785      -0.49583047 </v>
   <v>       0.40162279      -0.04069449      -0.49823441 </v>
   <v>       0.35405207      -0.39054463      -0.47915555 </v>
   <v>       0.09279328       0.49022811      -0.49620954 </v>
   <v>       0.15021154       0.47544624      -0.36410945 </v>
   <v>      -0.02752538      -0.42258305      -0.49924616 </v>
   <v>       0.20405719       0.49122378      -0.48862075 </v>
   <v>       0.49826090      -0.13810137      -0.48966480 </v>
   <v>       0.40278639      -0.36330131      -0.48351938 </v>
   <v>       0.23257563       0.48534586      -0.42804420 </v>
   <v>       0.19820579       0.47475659      -0.36211733 </v>
   <v>      -0.01751540       0.48847717      -0.49702827 </v>
   <v>      -0.49945879      -0.03076840      -0.49688897 </v>
   <v>      -0.05345255      -0.47699495      -0.49652434 </v>
   <v>       0.06690581       0.43580482      -0.49888689 </v>
   <v>       0.22580212       0.47989316       0.45327569 </v>
   <v>      -0.46922494      -0.17974406      -0.48722185 </v>
   <v>      -0.46685370      -0.06851820      -0.49468692 </v>
   <v>      -0.46700007      -0.20590484      -0.42846712 </v>
   <v>       0.29395340       0.49249282      -0.42948486 </v>
   <v>       0.21947679       0.46514671      -0.30995072 </v>
   <v>       0.45150516       0.05639156      -0.49620445 </v>
   <v>       0.43268704      -0.40174773      -0.48794956 </v>
   <v>       0.32241256       0.49549748      -0.48837272 </v>
   <v>      -0.10975976      -0.46166276      -0.36490607 </v>
   <v>       0.28243035       0.47783958       0.45308093 </v>
   <v>      -0.45963710      -0.26000330      -0.42731622 </v>
   <v>      -0.05525705       0.41809700      -0.49461673 </v>
   <v>      -0.45045996      -0.20113878       0.45430820 </v>
   <v>      -0.46133399       0.04349415      -0.49698324 </v>
   <v>      -0.03054077       0.38838921      -0.49487483 </v>
   <v>      -0.41242920      -0.04383630      -0.49546343 </v>
   <v>      -0.12288926       0.48982101      -0.49123251 </v>
   <v>      -0.46447410      -0.29355260      -0.48821796 </v>
   <v>      -0.49406956       0.08113833      -0.49525667 </v>
   <v>       0.39656126      -0.47214616      -0.49068005 </v>
   <v>      -0.43749887      -0.17257993       0.40773005 </v>
   <v>      -0.45230871      -0.25972803       0.45406079 </v>
   <v>      -0.45023599      -0.28484192      -0.36149197 </v>
   <v>      -0.44261248      -0.25541275      -0.30869572 </v>
   <v>      -0.49692479      -0.36766730      -0.49118704 </v>
   <v>       0.29803266       0.46551294       0.40614039 </v>
   <v>      -0.15807047      -0.46164291      -0.36224664 </v>
   <v>      -0.16454352      -0.47771948      -0.48869539 </v>
   <v>      -0.12486171       0.38334913      -0.48992794 </v>
   <v>      -0.44992396      -0.33300672      -0.36416885 </v>
   <v>      -0.15914075       0.41946386      -0.48725619 </v>
   <v>      -0.19280651      -0.47194381      -0.42790224 </v>
   <v>      -0.39086754       0.07950781      -0.49559659 </v>
   <v>      -0.17932341      -0.45297004      -0.30960376 </v>
   <v>      -0.36233246       0.05360946      -0.49749742 </v>
   <v>      -0.18650525      -0.46630403       0.45339121 </v>
   <v>      -0.45931248       0.15072428      -0.49054374 </v>
   <v>       0.43124629       0.49293183      -0.49496373 </v>
   <v>      -0.46376871      -0.40396417      -0.49612326 </v>
   <v>      -0.49177052       0.19240444      -0.48823249 </v>
   <v>       0.40146778       0.43849731      -0.49535222 </v>
   <v>      -0.16661156       0.30919083      -0.48704345 </v>
   <v>      -0.22745264       0.38955072      -0.48232371 </v>
   <v>      -0.49837147      -0.47445467      -0.49694319 </v>
   <v>      -0.35471956       0.14897205      -0.49036735 </v>
   <v>       0.47905680       0.18750677       0.40612162 </v>
   <v>      -0.49516991       0.21743401      -0.42921769 </v>
   <v>      -0.25422607      -0.47916310      -0.42895185 </v>
   <v>      -0.38894264       0.18513878      -0.48727209 </v>
   <v>      -0.24318023      -0.46433368       0.45358907 </v>
   <v>      -0.40933438      -0.37548771      -0.49825107 </v>
   <v>       0.49101680       0.21513256       0.45323315 </v>
   <v>      -0.32004332       0.13765037      -0.36303295 </v>
   <v>      -0.19287347       0.28137288      -0.42812307 </v>
   <v>      -0.24886767       0.34084831      -0.47763193 </v>
   <v>      -0.15956920       0.28355844       0.40822846 </v>
   <v>      -0.28294769      -0.48216177      -0.48768905 </v>
   <v>      -0.25902482      -0.45196426       0.40682195 </v>
   <v>      -0.18811395       0.26849685       0.45482793 </v>
   <v>       0.49785693       0.27178787      -0.42761609 </v>
   <v>       0.47797523       0.26470597      -0.30941155 </v>
   <v>      -0.28062900       0.19071395      -0.48733959 </v>
   <v>      -0.31448333       0.40389972      -0.47736254 </v>
   <v>       0.49303730       0.27380831       0.45365386 </v>
   <v>      -0.27180618       0.18610116      -0.36058790 </v>
   <v>      -0.35068071       0.25348081      -0.48255482 </v>
   <v>      -0.46228293       0.48738135      -0.49665002 </v>
   <v>      -0.37798064       0.27491418      -0.47839277 </v>
   <v>       0.48729978       0.29547919      -0.36161201 </v>
   <v>       0.44876310       0.38839060      -0.49793394 </v>
   <v>      -0.24704056       0.21993250      -0.42659393 </v>
   <v>      -0.49593650       0.30654251      -0.48804260 </v>
   <v>      -0.36220410      -0.42547540      -0.49542973 </v>
   <v>      -0.24679368       0.21181092       0.45488699 </v>
   <v>      -0.24219557       0.20814667      -0.30791821 </v>
   <v>      -0.49680597       0.41689157      -0.49552425 </v>
   <v>      -0.35712044       0.48530756      -0.48977674 </v>
   <v>      -0.39190314      -0.47990744      -0.49459812 </v>
   <v>      -0.36318972       0.37657505      -0.48193886 </v>
   <v>       0.48780501       0.34407917      -0.36359417 </v>
   <v>      -0.39317125       0.41490787      -0.48666802 </v>
   <v>      -0.46354867       0.38070720      -0.49018334 </v>
  </varray>
 </structure>
 <varray name="primitive_index" >
  <v type="int" >        1 </v>
  <v type="int" >       30 </v>
  <v type="int" >       18 </v>
  <v type="int" >       34 </v>
  <v type="int" >       17 </v>
  <v type="int" >       28 </v>
  <v type="int" >       19 </v>
  <v type="int" >       79 </v>
  <v type="int" >        5 </v>
  <v type="int" >      109 </v>
  <v type="int" >       33 </v>
  <v type="int" >      113 </v>
  <v type="int" >       89 </v>
  <v type="int" >       84 </v>
  <v type="int" >       29 </v>
  <v type="int" >      112 </v>
  <v type="int" >       88 </v>
  <v type="int" >       25 </v>
  <v type="int" >       41 </v>
  <v type="int" >       82 </v>
  <v type="int" >       32 </v>
  <v type="int" >       15 </v>
  <v type="int" >       24 </v>
  <v type="int" >       86 </v>
  <v type="int" >       83 </v>
  <v type="int" >       16 </v>
  <v type="int" >       80 </v>
  <v type="int" >      103 </v>
  <v type="int" >       31 </v>
  <v type="int" >       35 </v>
  <v type="int" >      114 </v>
  <v type="int" >       13 </v>
  <v type="int" >       14 </v>
  <v type="int" >       65 </v>
  <v type="int" >       23 </v>
  <v type="int" >       66 </v>
  <v type="int" >       81 </v>
  <v type="int" >        4 </v>
  <v type="int" >       58 </v>
  <v type="int" >       54 </v>
  <v type="int" >        7 </v>
  <v type="int" >        2 </v>
  <v type="int" >      110 </v>
  <v type="int" >       90 </v>
  <v type="int" >       43 </v>
  <v type="int" >       39 </v>
  <v type="int" >      102 </v>
  <v type="int" >       44 </v>
  <v type="int" >       46 </v>
  <v type="int" >       67 </v>
  <v type="int" >       60 </v>
  <v type="int" >       48 </v>
  <v type="int" >      105 </v>
  <v type="int" >       95 </v>
  <v type="int" >       75 </v>
  <v type="int" >       57 </v>
  <v type="int" >       36 </v>
  <v type="int" >       37 </v>
  <v type="int" >       96 </v>
  <v type="int" >        8 </v>
  <v type="int" >       47 </v>
  <v type="int" >      115 </v>
  <v type="int" >       42 </v>
  <v type="int" >       92 </v>
  <v type="int" >       64 </v>
  <v type="int" >       72 </v>
  <v type="int" >       68 </v>
  <v type="int" >       93 </v>
  <v type="int" >       74 </v>
  <v type="int" >       63 </v>
  <v type="int" >       49 </v>
  <v type="int" >      117 </v>
  <v type="int" >      104 </v>
  <v type="int" >       12 </v>
  <v type="int" >       55 </v>
  <v type="int" >       38 </v>
  <v type="int" >       50 </v>
  <v type="int" >       40 </v>
  <v type="int" >       91 </v>
  <v type="int" >       71 </v>
  <v type="int" >      119 </v>
  <v type="int" >       26 </v>
  <v type="int" >       76 </v>
  <v type="int" >       97 </v>
  <v type="int" >        3 </v>
  <v type="int" >       10 </v>
  <v type="int" >       59 </v>
  <v type="int" >       78 </v>
  <v type="int" >       94 </v>
  <v type="int" >       45 </v>
  <v type="int" >      101 </v>
  <v type="int" >        9 </v>
  <v type="int" >       98 </v>
  <v type="int" >      107 </v>
  <v type="int" >       73 </v>
  <v type="int" >      108 </v>
  <v type="int" >       77 </v>
  <v type="int" >       21 </v>
  <v type="int" >      111 </v>
  <v type="int" >       70 </v>
  <v type="int" >      100 </v>
  <v type="int" >        6 </v>
  <v type="int" >       62 </v>
  <v type="int" >      120 </v>
  <v type="int" >       51 </v>
  <v type="int" >       99 </v>
  <v type="int" >       22 </v>
  <v type="int" >       87 </v>
  <v type="int" >       61 </v>
  <v type="int" >       20 </v>
  <v type="int" >      106 </v>
  <v type="int" >       11 </v>
  <v type="int" >      116 </v>
  <v type="int" >       27 </v>
  <v type="int" >       69 </v>
  <v type="int" >       56 </v>
  <v type="int" >      118 </v>
  <v type="int" >       85 </v>
  <v type="int" >       52 </v>
  <v type="int" >       53 </v>
 </varray>
 <kpoints>
  <generation param="listgenerated">
   <i name="divisions" type="int">      20 </i>
   <v>       0.00000000       0.00000000       0.00000000 </v>
   <v>       0.50000000       0.00000000       0.00000000 </v>
   <v>       0.33333333       0.33333333       0.00000000 </v>
   <v>       0.00000000       0.00000000       0.00000000 </v>
  </generation>
  <varray name="kpointlist" >
   <v>       0.00000000       0.00000000       0.00000000 </v>
   <v>       0.02631579       0.00000000       0.00000000 </v>
   <v>       0.05263158       0.00000000       0.00000000 </v>
   <v>       0.07894737       0.00000000       0.00000000 </v>
   <v>       0.10526316       0.00000000       0.00000000 </v>
   <v>       0.13157895       0.00000000       0.00000000 </v>
   <v>       0.15789474       0.00000000       0.00000000 </v>
   <v>       0.18421053       0.00000000       0.00000000 </v>
   <v>       0.21052632       0.00000000       0.00000000 </v>
   <v>       0.23684211       0.00000000       0.00000000 </v>
   <v>       0.26315789       0.00000000       0.00000000 </v>
   <v>       0.28947368       0.00000000       0.00000000 </v>
   <v>       0.31578947       0.00000000       0.00000000 </v>
   <v>       0.34210526       0.00000000       0.00000000 </v>
   <v>       0.36842105       0.00000000       0.00000000 </v>
   <v>       0.39473684       0.00000000       0.00000000 </v>
   <v>       0.42105263       0.00000000       0.00000000 </v>
   <v>       0.44736842       0.00000000       0.00000000 </v>
   <v>       0.47368421       0.00000000       0.00000000 </v>
   <v>       0.50000000       0.00000000       0.00000000 </v>
   <v>       0.50000000       0.00000000       0.00000000 </v>
   <v>       0.49122807       0.01754386       0.00000000 </v>
   <v>       0.48245614       0.03508772       0.00000000 </v>
   <v>       0.47368421       0.05263158       0.00000000 </v>
   <v>       0.46491228       0.07017544       0.00000000 </v>
   <v>       0.45614035       0.08771930       0.00000000 </v>
   <v>       0.44736842       0.10526316       0.00000000 </v>
   <v>       0.43859649       0.12280702       0.00000000 </v>
   <v>       0.42982456       0.14035088       0.00000000 </v>
   <v>       0.42105263       0.15789474       0.00000000 </v>
   <v>       0.41228070       0.17543860       0.00000000 </v>
   <v>       0.40350877       0.19298246       0.00000000 </v>
   <v>       0.39473684       0.21052632       0.00000000 </v>
   <v>       0.38596491       0.22807018       0.00000000 </v>
   <v>       0.37719298       0.24561404       0.00000000 </v>
   <v>       0.36842105       0.26315789       0.00000000 </v>
   <v>       0.35964912       0.28070175       0.00000000 </v>
   <v>       0.35087719       0.29824561       0.00000000 </v>
   <v>       0.34210526       0.31578947       0.00000000 </v>
   <v>       0.33333333       0.33333333       0.00000000 </v>
   <v>       0.33333333       0.33333333       0.00000000 </v>
   <v>       0.31578947       0.31578947       0.00000000 </v>
   <v>       0.29824561       0.29824561       0.00000000 </v>
   <v>       0.28070175       0.28070175       0.00000000 </v>
   <v>       0.26315789       0.26315789       0.00000000 </v>
   <v>       0.24561404       0.24561404       0.00000000 </v>
   <v>       0.22807018       0.22807018       0.00000000 </v>
   <v>       0.21052632       0.21052632       0.00000000 </v>
   <v>       0.19298246       0.19298246       0.00000000 </v>
   <v>       0.17543860       0.17543860       0.00000000 </v>
   <v>       0.15789474       0.15789474       0.00000000 </v>
   <v>       0.14035088       0.14035088       0.00000000 </v>
   <v>       0.12280702       0.12280702       0.00000000 </v>
   <v>       0.10526316       0.10526316       0.00000000 </v>
   <v>       0.08771930       0.08771930       0.00000000 </v>
   <v>       0.07017544       0.07017544       0.00000000 </v>
   <v>       0.05263158       0.05263158       0.00000000 </v>
   <v>       0.03508772       0.03508772       0.00000000 </v>
   <v>       0.01754386       0.01754386       0.00000000 </v>
   <v>       0.00000000       0.00000000       0.00000000 </v>
  </varray>
  <varray name="weights" >
   <v>       0.01666667 </v>
   <v>       0.01666667 </v>
   <v>       0.01666667 </v>
   <v>       0.01666667 </v>
   <v>       0.01666667 </v>
   <v>       0.01666667 </v>
   <v>       0.01666667 </v>
   <v>       0.01666667 </v>
   <v>       0.01666667 </v>
   <v>       0.01666667 </v>
   <v>       0.01666667 </v>
   <v>       0.01666667 </v>
   <v>       0.01666667 </v>
   <v>       0.01666667 </v>
   <v>       0.01666667 </v>
   <v>       0.01666667 </v>
   <v>       0.01666667 </v>
   <v>       0.01666667 </v>
   <v>       0.01666667 </v>
   <v>       0.01666667 </v>
   <v>       0.01666667 </v>
   <v>       0.01666667 </v>
   <v>       0.01666667 </v>
   <v>       0.01666667 </v>
   <v>       0.01666667 </v>
   <v>       0.01666667 </v>
   <v>       0.01666667 </v>
   <v>       0.01666667 </v>
   <v>       0.01666667 </v>
   <v>       0.01666667 </v>
   <v>       0.01666667 </v>
   <v>       0.01666667 </v>
   <v>       0.01666667 </v>
   <v>       0.01666667 </v>
   <v>       0.01666667 </v>
   <v>       0.01666667 </v>
   <v>       0.01666667 </v>
   <v>       0.01666667 </v>
   <v>       0.01666667 </v>
   <v>       0.01666667 </v>
   <v>       0.01666667 </v>
   <v>       0.01666667 </v>
   <v>       0.01666667 </v>
   <v>       0.01666667 </v>
   <v>       0.01666667 </v>
   <v>       0.01666667 </v>
   <v>       0.01666667 </v>
   <v>       0.01666667 </v>
   <v>       0.01666667 </v>
   <v>       0.01666667 </v>
   <v>       0.01666667 </v>
   <v>       0.01666667 </v>
   <v>       0.01666667 </v>
   <v>       0.01666667 </v>
   <v>       0.01666667 </v>
   <v>       0.01666667 </v>
   <v>       0.01666667 </v>
   <v>       0.01666667 </v>
   <v>       0.01666667 </v>
   <v>       0.01666667 </v>
  </varray>
 </kpoints>
 <parameters>
  <separator name="general" >
   <i type="string" name="SYSTEM">Simulation for cell shape cell volume r</i>
   <i type="logical" name="LCOMPAT"> F  </i>
  </separator>
  <separator name="electronic" >
   <i type="string" name="PREC">high</i>
   <i name="ENMAX">    500.00000000</i>
   <i name="ENAUG">    644.87300000</i>
   <i name="EDIFF">      0.00001000</i>
   <i type="int" name="IALGO">    38</i>
   <i type="int" name="IWAVPR">    10</i>
   <i type="int" name="NBANDS">   288</i>
   <i name="NELECT">    426.00000000</i>
   <i type="int" name="TURBO">     0</i>
   <i type="int" name="IRESTART">     0</i>
   <i type="int" name="NREBOOT">     0</i>
   <i type="int" name="NMIN">     0</i>
   <i name="EREF">      0.00000000</i>
   <separator name="electronic smearing" >
    <i type="int" name="ISMEAR">     0</i>
    <i name="SIGMA">      0.01000000</i>
    <i name="KSPACING">      0.50000000</i>
    <i type="logical" name="KGAMMA"> T  </i>
   </separator>
   <separator name="electronic projectors" >
    <i type="logical" name="LREAL"> T  </i>
    <v name="ROPT">     -0.00040000     -0.00040000     -0.00040000     -0.00040000</v>
    <i type="int" name="LMAXPAW">  -100</i>
    <i type="int" name="LMAXMIX">     2</i>
    <i type="logical" name="NLSPLINE"> F  </i>
   </separator>
   <separator name="electronic startup" >
    <i type="int" name="ISTART">     1</i>
    <i type="int" name="ICHARG">    11</i>
    <i type="int" name="INIWAV">     1</i>
   </separator>
   <separator name="electronic spin" >
    <i type="int" name="ISPIN">     1</i>
    <i type="logical" name="LNONCOLLINEAR"> F  </i>
    <v name="MAGMOM">      1.00000000      1.00000000      1.00000000      1.00000000      1.00000000      1.00000000      1.00000000      1.00000000      1.00000000      1.00000000      1.00000000      1.00000000      1.00000000      1.00000000      1.00000000      1.00000000      1.00000000      1.00000000      1.00000000      1.00000000
      1.00000000      1.00000000      1.00000000      1.00000000      1.00000000      1.00000000      1.00000000      1.00000000      1.00000000      1.00000000      1.00000000      1.00000000      1.00000000      1.00000000      1.00000000      1.00000000      1.00000000      1.00000000      1.00000000      1.00000000
      1.00000000      1.00000000      1.00000000      1.00000000      1.00000000      1.00000000      1.00000000      1.00000000      1.00000000      1.00000000      1.00000000      1.00000000      1.00000000      1.00000000      1.00000000      1.00000000      1.00000000      1.00000000      1.00000000      1.00000000
      1.00000000      1.00000000      1.00000000      1.00000000      1.00000000      1.00000000      1.00000000      1.00000000      1.00000000      1.00000000      1.00000000      1.00000000      1.00000000      1.00000000      1.00000000      1.00000000      1.00000000      1.00000000      1.00000000      1.00000000
      1.00000000      1.00000000      1.00000000      1.00000000      1.00000000      1.00000000      1.00000000      1.00000000      1.00000000      1.00000000      1.00000000      1.00000000      1.00000000      1.00000000      1.00000000      1.00000000      1.00000000      1.00000000      1.00000000      1.00000000
      1.00000000      1.00000000      1.00000000      1.00000000      1.00000000      1.00000000      1.00000000      1.00000000      1.00000000      1.00000000      1.00000000      1.00000000      1.00000000      1.00000000      1.00000000      1.00000000      1.00000000      1.00000000      1.00000000      1.00000000
</v>
    <i name="NUPDOWN">     -1.00000000</i>
    <i type="logical" name="LSORBIT"> F  </i>
    <v name="SAXIS">      0.00000000      0.00000000      1.00000000</v>
    <i type="logical" name="LSPIRAL"> F  </i>
    <v name="QSPIRAL">      0.00000000      0.00000000      0.00000000</v>
    <i type="logical" name="LZEROZ"> F  </i>
   </separator>
   <separator name="electronic exchange-correlation" >
    <i type="logical" name="LASPH"> F  </i>
    <i type="logical" name="LMETAGGA"> F  </i>
   </separator>
   <separator name="electronic convergence" >
    <i type="int" name="NELM">   200</i>
    <i type="int" name="NELMDL">     0</i>
    <i type="int" name="NELMIN">     2</i>
    <i name="ENINI">    500.00000000</i>
    <separator name="electronic convergence detail" >
     <i type="logical" name="LDIAG"> T  </i>
     <i type="logical" name="LSUBROT"> F  </i>
     <i name="WEIMIN">      0.00000000</i>
     <i name="EBREAK">      0.00000001</i>
     <i name="DEPER">      0.30000000</i>
     <i type="int" name="NRMM">     4</i>
     <i name="TIME">      0.40000000</i>
    </separator>
   </separator>
   <separator name="electronic mixer" >
    <i name="AMIX">      0.40000000</i>
    <i name="BMIX">      1.00000000</i>
    <i name="AMIN">      0.10000000</i>
    <i name="AMIX_MAG">      1.60000000</i>
    <i name="BMIX_MAG">      1.00000000</i>
    <separator name="electronic mixer details" >
     <i type="int" name="IMIX">     4</i>
     <i type="logical" name="MIXFIRST"> F  </i>
     <i type="int" name="MAXMIX">   -45</i>
     <i name="WC">    100.00000000</i>
     <i type="int" name="INIMIX">     1</i>
     <i type="int" name="MIXPRE">     1</i>
     <i type="int" name="MREMOVE">     5</i>
    </separator>
   </separator>
   <separator name="electronic dipolcorrection" >
    <i type="logical" name="LDIPOL"> F  </i>
    <i type="logical" name="LMONO"> F  </i>
    <i type="int" name="IDIPOL">     0</i>
    <i name="EPSILON">      1.00000000</i>
    <v name="DIPOL">   -100.00000000   -100.00000000   -100.00000000</v>
    <i name="EFIELD">      0.00000000</i>
   </separator>
  </separator>
  <separator name="grids" >
   <i type="int" name="NGX">   168</i>
   <i type="int" name="NGY">   168</i>
   <i type="int" name="NGZ">   150</i>
   <i type="int" name="NGXF">   256</i>
   <i type="int" name="NGYF">   256</i>
   <i type="int" name="NGZF">   224</i>
   <i type="logical" name="ADDGRID"> F  </i>
  </separator>
  <separator name="ionic" >
   <i type="int" name="NSW">     0</i>
   <i type="int" name="IBRION">    -1</i>
   <i type="int" name="MDALGO">     0</i>
   <i type="int" name="ISIF">     2</i>
   <i name="PSTRESS">      0.00000000</i>
   <i name="EDIFFG">     -0.01000000</i>
   <i type="int" name="NFREE">     0</i>
   <i name="POTIM">      0.30000000</i>
   <i name="SMASS">     -3.00000000</i>
   <i name="SCALEE">      1.00000000</i>
  </separator>
  <separator name="ionic md" >
   <i name="TEBEG">      0.00010000</i>
   <i name="TEEND">      0.00010000</i>
   <i type="int" name="NBLOCK">     1</i>
   <i type="int" name="KBLOCK">     1</i>
   <i type="int" name="NPACO">   256</i>
   <i name="APACO">     16.00000000</i>
  </separator>
  <separator name="symmetry" >
   <i type="int" name="ISYM">     2</i>
   <i name="SYMPREC">      0.00001000</i>
  </separator>
  <separator name="dos" >
   <i type="int" name="LORBIT">     0</i>
   <v name="RWIGS">     -1.00000000     -1.00000000     -1.00000000     -1.00000000</v>
   <i type="int" name="NEDOS">   301</i>
   <i name="EMIN">     10.00000000</i>
   <i name="EMAX">    -10.00000000</i>
   <i name="EFERMI">      0.00000000</i>
  </separator>
  <separator name="writing" >
   <i type="int" name="NWRITE">     0</i>
   <i type="logical" name="LWAVE"> F  </i>
   <i type="logical" name="LDOWNSAMPLE"> F  </i>
   <i type="logical" name="LCHARG"> F  </i>
   <i type="logical" name="LPARD"> F  </i>
   <i type="logical" name="LVTOT"> F  </i>
   <i type="logical" name="LVHAR"> F  </i>
   <i type="logical" name="LELF"> F  </i>
   <i type="logical" name="LOPTICS"> F  </i>
   <v name="STM">      0.00000000      0.00000000      0.00000000      0.00000000      0.00000000      0.00000000      0.00000000</v>
  </separator>
  <separator name="performance" >
   <i type="int" name="NPAR">    16</i>
   <i type="int" name="NSIM">     4</i>
   <i type="int" name="NBLK">    -1</i>
   <i type="logical" name="LPLANE"> T  </i>
   <i type="logical" name="LSCALAPACK"> T  </i>
   <i type="logical" name="LSCAAWARE"> F  </i>
   <i type="logical" name="LSCALU"> F  </i>
   <i type="logical" name="LASYNC"> F  </i>
   <i type="logical" name="LORBITALREAL"> F  </i>
  </separator>
  <separator name="miscellaneous" >
   <i type="int" name="IDIOT">     3</i>
   <i type="int" name="ISPECIAL">     0</i>
   <i type="logical" name="LMUSIC"> F  </i>
   <v name="POMASS">     14.00100000     12.01100000      1.00000000     16.00000000</v>
   <v name="DARWINR">      0.00000000      0.00000000      0.00000000      0.00000000</v>
   <v name="DARWINV">      1.00000000      1.00000000      1.00000000      1.00000000</v>
   <i type="logical" name="LCORR"> T  </i>
  </separator>
  <i type="logical" name="GGA_COMPAT"> T  </i>
  <i type="logical" name="LBERRY"> F  </i>
  <i type="int" name="ICORELEVEL">     0</i>
  <i type="logical" name="LDAU"> F  </i>
  <i type="int" name="I_CONSTRAINED_M">     0</i>
  <separator name="electronic exchange-correlation" >
   <i type="string" name="GGA">PE</i>
   <i type="int" name="VOSKOWN">     0</i>
   <i type="logical" name="LHFCALC"> F  </i>
   <i type="string" name="PRECFOCK"></i>
   <i type="logical" name="LSYMGRAD"> F  </i>
   <i type="logical" name="LHFONE"> F  </i>
   <i type="logical" name="LRHFCALC"> F  </i>
   <i type="logical" name="LTHOMAS"> F  </i>
   <i type="logical" name="LMODELHF"> F  </i>
   <i name="ENCUT4O">     -1.00000000</i>
   <i type="int" name="EXXOEP">     0</i>
   <i type="int" name="FOURORBIT">     0</i>
   <i name="AEXX">      0.00000000</i>
   <i name="HFALPHA">      0.00000000</i>
   <i name="MCALPHA">      0.00000000</i>
   <i name="ALDAX">      1.00000000</i>
   <i name="AGGAX">      1.00000000</i>
   <i name="ALDAC">      1.00000000</i>
   <i name="AGGAC">      1.00000000</i>
   <i type="int" name="NKREDX">     1</i>
   <i type="int" name="NKREDY">     1</i>
   <i type="int" name="NKREDZ">     1</i>
   <i type="logical" name="SHIFTRED"> F  </i>
   <i type="logical" name="ODDONLY"> F  </i>
   <i type="logical" name="EVENONLY"> F  </i>
   <i type="int" name="LMAXFOCK">     0</i>
   <i type="int" name="NMAXFOCKAE">     0</i>
   <i type="logical" name="LFOCKAEDFT"> F  </i>
   <i name="HFSCREEN">      0.00000000</i>
   <i name="HFSCREENC">      0.00000000</i>
   <i type="int" name="NBANDSGWLOW">     0</i>
  </separator>
  <separator name="vdW DFT" >
   <i type="logical" name="LUSE_VDW"> F  </i>
   <i name="Zab_VDW">     -0.84910000</i>
   <i name="PARAM1">      0.12340000</i>
   <i name="PARAM2">      1.00000000</i>
   <i name="PARAM3">      0.00000000</i>
  </separator>
  <separator name="model GW" >
   <i type="int" name="MODEL_GW">     0</i>
   <i name="MODEL_EPS0">     46.10164391</i>
   <i name="MODEL_ALPHA">      1.00000000</i>
  </separator>
  <separator name="linear response parameters" >
   <i type="logical" name="LEPSILON"> F  </i>
   <i type="logical" name="LRPA"> F  </i>
   <i type="logical" name="LNABLA"> F  </i>
   <i type="logical" name="LVEL"> F  </i>
   <i type="int" name="KINTER">     0</i>
   <i name="CSHIFT">      0.10000000</i>
   <i name="OMEGAMAX">     -1.00000000</i>
   <i name="DEG_THRESHOLD">      0.00200000</i>
   <i name="RTIME">     -0.10000000</i>
   <i name="WPLASMAI">      0.00000000</i>
   <v name="DFIELD">      0.00000000      0.00000000      0.00000000</v>
   <v name="WPLASMA">      0.00000000      0.00000000      0.00000000      0.00000000      0.00000000      0.00000000      0.00000000      0.00000000      0.00000000</v>
  </separator>
  <separator name="orbital magnetization" >
   <i type="logical" name="NUCIND"> F  </i>
   <v name="MAGPOS">      0.00000000      0.00000000      0.00000000</v>
   <i type="logical" name="LNICSALL"> T  </i>
   <i type="logical" name="ORBITALMAG"> F  </i>
   <i type="logical" name="LMAGBLOCH"> F  </i>
   <i type="logical" name="LCHIMAG"> F  </i>
   <i type="logical" name="LGAUGE"> T  </i>
   <i type="int" name="MAGATOM">     0</i>
   <v name="MAGDIPOL">      0.00000000      0.00000000      0.00000000</v>
   <v name="AVECCONST">      0.00000000      0.00000000      0.00000000</v>
  </separator>
  <separator name="response functions" >
   <i type="logical" name="LADDER"> F  </i>
   <i type="logical" name="LRPAFORCE"> F  </i>
   <i type="logical" name="LFXC"> F  </i>
   <i type="logical" name="LHARTREE"> T  </i>
   <i type="int" name="IBSE">     0</i>
   <v type="int" name="KPOINT">    -1     0     0     0</v>
   <i type="logical" name="LTCTE"> F  </i>
   <i type="logical" name="LTETE"> F  </i>
   <i type="logical" name="LTRIPLET"> F  </i>
   <i type="logical" name="LFXCEPS"> F  </i>
   <i type="logical" name="LFXHEG"> F  </i>
   <i type="int" name="NATURALO">     2</i>
   <i type="logical" name="L2ORDER"> F  </i>
   <i type="logical" name="LMP2LT"> F  </i>
   <i type="logical" name="LUSEW"> F  </i>
   <i name="ENCUTGW">     -2.00000000</i>
   <i name="ENCUTGWSOFT">     -2.00000000</i>
   <i name="ENCUTLF">     -1.00000000</i>
   <i type="int" name="LMAXMP2">    -1</i>
   <i name="SCISSOR">      0.00000000</i>
   <i type="int" name="NOMEGA">     0</i>
   <i type="int" name="NOMEGAR">     0</i>
   <i type="int" name="NBANDSGW">    -1</i>
   <i type="int" name="NBANDSO">    -1</i>
   <i type="int" name="NBANDSV">    -1</i>
   <i type="int" name="NELM">   200</i>
   <i type="int" name="NELMHF">     1</i>
   <i type="int" name="DIM">     3</i>
   <i type="int" name="ANTIRES">     0</i>
   <i name="OMEGAMAX">    -30.00000000</i>
   <i name="OMEGAMIN">    -30.00000000</i>
   <i name="OMEGATL">   -200.00000000</i>
   <i type="int" name="OMEGAGRID">   140</i>
   <i name="CSHIFT">     -0.10000000</i>
   <i type="logical" name="SELFENERGY"> F  </i>
   <i type="logical" name="LSPECTRAL"> F  </i>
   <i type="logical" name="LSPECTRALGW"> F  </i>
   <i type="logical" name="LSINGLES"> F  </i>
   <i type="logical" name="LFERMIGW"> F  </i>
   <i type="logical" name="ODDONLYGW"> F  </i>
   <i type="logical" name="EVENONLYGW"> F  </i>
   <i type="int" name="NKREDLFX">     1</i>
   <i type="int" name="NKREDLFY">     1</i>
   <i type="int" name="NKREDLFZ">     1</i>
   <i type="int" name="MAXMEM">  2800</i>
   <i type="int" name="TELESCOPE">     0</i>
   <i type="int" name="TAUPAR">     1</i>
   <i type="int" name="OMEGAPAR">    -1</i>
   <i name="LAMBDA">      1.00000000</i>
  </separator>
  <separator name="External order field" >
   <i name="OFIELD_KAPPA">      0.00000000</i>
   <v name="OFIELD_K">      0.00000000      0.00000000      0.00000000</v>
   <i name="OFIELD_Q6_NEAR">      0.00000000</i>
   <i name="OFIELD_Q6_FAR">      0.00000000</i>
   <i name="OFIELD_A">      0.00000000</i>
  </separator>
  <separator name="solvation model" >
   <i type="logical" name="LSOL"> F  </i>
  </separator>
 </parameters>
 <atominfo>
  <atoms>     120 </atoms>
  <types>       4 </types>
  <array name="atoms" >
   <dimension dim="1">ion</dimension>
   <field type="string">element</field>
   <field type="int">atomtype</field>
   <set>
    <rc><c>N </c><c>   1</c></rc>
    <rc><c>N </c><c>   1</c></rc>
    <rc><c>N </c><c>   1</c></rc>
    <rc><c>N </c><c>   1</c></rc>
    <rc><c>N </c><c>   1</c></rc>
    <rc><c>N </c><c>   1</c></rc>
    <rc><c>N </c><c>   1</c></rc>
    <rc><c>N </c><c>   1</c></rc>
    <rc><c>N </c><c>   1</c></rc>
    <rc><c>N </c><c>   1</c></rc>
    <rc><c>N </c><c>   1</c></rc>
    <rc><c>N </c><c>   1</c></rc>
    <rc><c>C </c><c>   2</c></rc>
    <rc><c>C </c><c>   2</c></rc>
    <rc><c>C </c><c>   2</c></rc>
    <rc><c>C </c><c>   2</c></rc>
    <rc><c>C </c><c>   2</c></rc>
    <rc><c>C </c><c>   2</c></rc>
    <rc><c>C </c><c>   2</c></rc>
    <rc><c>C </c><c>   2</c></rc>
    <rc><c>C </c><c>   2</c></rc>
    <rc><c>C </c><c>   2</c></rc>
    <rc><c>C </c><c>   2</c></rc>
    <rc><c>C </c><c>   2</c></rc>
    <rc><c>C </c><c>   2</c></rc>
    <rc><c>C </c><c>   2</c></rc>
    <rc><c>C </c><c>   2</c></rc>
    <rc><c>C </c><c>   2</c></rc>
    <rc><c>C </c><c>   2</c></rc>
    <rc><c>C </c><c>   2</c></rc>
    <rc><c>C </c><c>   2</c></rc>
    <rc><c>C </c><c>   2</c></rc>
    <rc><c>C </c><c>   2</c></rc>
    <rc><c>C </c><c>   2</c></rc>
    <rc><c>C </c><c>   2</c></rc>
    <rc><c>C </c><c>   2</c></rc>
    <rc><c>C </c><c>   2</c></rc>
    <rc><c>C </c><c>   2</c></rc>
    <rc><c>C </c><c>   2</c></rc>
    <rc><c>C </c><c>   2</c></rc>
    <rc><c>C </c><c>   2</c></rc>
    <rc><c>C </c><c>   2</c></rc>
    <rc><c>C </c><c>   2</c></rc>
    <rc><c>C </c><c>   2</c></rc>
    <rc><c>C </c><c>   2</c></rc>
    <rc><c>C </c><c>   2</c></rc>
    <rc><c>C </c><c>   2</c></rc>
    <rc><c>C </c><c>   2</c></rc>
    <rc><c>C </c><c>   2</c></rc>
    <rc><c>C </c><c>   2</c></rc>
    <rc><c>C </c><c>   2</c></rc>
    <rc><c>C </c><c>   2</c></rc>
    <rc><c>C </c><c>   2</c></rc>
    <rc><c>C </c><c>   2</c></rc>
    <rc><c>C </c><c>   2</c></rc>
    <rc><c>C </c><c>   2</c></rc>
    <rc><c>C </c><c>   2</c></rc>
    <rc><c>C </c><c>   2</c></rc>
    <rc><c>C </c><c>   2</c></rc>
    <rc><c>C </c><c>   2</c></rc>
    <rc><c>C </c><c>   2</c></rc>
    <rc><c>C </c><c>   2</c></rc>
    <rc><c>C </c><c>   2</c></rc>
    <rc><c>C </c><c>   2</c></rc>
    <rc><c>C </c><c>   2</c></rc>
    <rc><c>C </c><c>   2</c></rc>
    <rc><c>C </c><c>   2</c></rc>
    <rc><c>C </c><c>   2</c></rc>
    <rc><c>C </c><c>   2</c></rc>
    <rc><c>C </c><c>   2</c></rc>
    <rc><c>C </c><c>   2</c></rc>
    <rc><c>C </c><c>   2</c></rc>
    <rc><c>C </c><c>   2</c></rc>
    <rc><c>C </c><c>   2</c></rc>
    <rc><c>C </c><c>   2</c></rc>
    <rc><c>C </c><c>   2</c></rc>
    <rc><c>C </c><c>   2</c></rc>
    <rc><c>C </c><c>   2</c></rc>
    <rc><c>H </c><c>   3</c></rc>
    <rc><c>H </c><c>   3</c></rc>
    <rc><c>H </c><c>   3</c></rc>
    <rc><c>H </c><c>   3</c></rc>
    <rc><c>H </c><c>   3</c></rc>
    <rc><c>H </c><c>   3</c></rc>
    <rc><c>H </c><c>   3</c></rc>
    <rc><c>H </c><c>   3</c></rc>
    <rc><c>H </c><c>   3</c></rc>
    <rc><c>H </c><c>   3</c></rc>
    <rc><c>H </c><c>   3</c></rc>
    <rc><c>H </c><c>   3</c></rc>
    <rc><c>H </c><c>   3</c></rc>
    <rc><c>H </c><c>   3</c></rc>
    <rc><c>H </c><c>   3</c></rc>
    <rc><c>H </c><c>   3</c></rc>
    <rc><c>H </c><c>   3</c></rc>
    <rc><c>H </c><c>   3</c></rc>
    <rc><c>H </c><c>   3</c></rc>
    <rc><c>H </c><c>   3</c></rc>
    <rc><c>H </c><c>   3</c></rc>
    <rc><c>H </c><c>   3</c></rc>
    <rc><c>H </c><c>   3</c></rc>
    <rc><c>H </c><c>   3</c></rc>
    <rc><c>H </c><c>   3</c></rc>
    <rc><c>H </c><c>   3</c></rc>
    <rc><c>H </c><c>   3</c></rc>
    <rc><c>H </c><c>   3</c></rc>
    <rc><c>H </c><c>   3</c></rc>
    <rc><c>H </c><c>   3</c></rc>
    <rc><c>O </c><c>   4</c></rc>
    <rc><c>O </c><c>   4</c></rc>
    <rc><c>O </c><c>   4</c></rc>
    <rc><c>O </c><c>   4</c></rc>
    <rc><c>O </c><c>   4</c></rc>
    <rc><c>O </c><c>   4</c></rc>
    <rc><c>O </c><c>   4</c></rc>
    <rc><c>O </c><c>   4</c></rc>
    <rc><c>O </c><c>   4</c></rc>
    <rc><c>O </c><c>   4</c></rc>
    <rc><c>O </c><c>   4</c></rc>
    <rc><c>O </c><c>   4</c></rc>
   </set>
  </array>
  <array name="atomtypes" >
   <dimension dim="1">type</dimension>
   <field type="int">atomspertype</field>
   <field type="string">element</field>
   <field>mass</field>
   <field>valence</field>
   <field type="string">pseudopotential</field>
   <set>
    <rc><c>  12</c><c>N </c><c>     14.00100000</c><c>      5.00000000</c><c>  PAW_PBE N 08Apr2002                   </c></rc>
    <rc><c>  66</c><c>C </c><c>     12.01100000</c><c>      4.00000000</c><c>  PAW_PBE C 08Apr2002                   </c></rc>
    <rc><c>  30</c><c>H </c><c>      1.00000000</c><c>      1.00000000</c><c>  PAW_PBE H 15Jun2001                   </c></rc>
    <rc><c>  12</c><c>O </c><c>     16.00000000</c><c>      6.00000000</c><c>  PAW_PBE O 08Apr2002                   </c></rc>
   </set>
  </array>
 </atominfo>
 <structure name="initialpos" >
  <crystal>
   <varray name="basis" >
    <v>      23.07540152      -0.00246572       0.00000000 </v>
    <v>     -11.53983848      19.97992940       0.00000000 </v>
    <v>       0.00000000       0.00000000      20.00000000 </v>
   </varray>
   <i name="volume">   9220.32878253 </i>
   <varray name="rec_basis" >
    <v>       0.04333887       0.02503129       0.00000000 </v>
    <v>       0.00000535       0.05005332       0.00000000 </v>
    <v>       0.00000000       0.00000000       0.05000000 </v>
   </varray>
  </crystal>
  <varray name="positions" >
   <v>       0.23159392       0.73233790       0.57206876 </v>
   <v>       0.29395340       0.49249282       0.57051514 </v>
   <v>       0.50483009       0.21743401       0.57078231 </v>
   <v>       0.22580212       0.47989316       0.45327569 </v>
   <v>       0.28598621       0.80088428       0.45466039 </v>
   <v>       0.49303730       0.27380831       0.45365386 </v>
   <v>       0.53299993       0.79409516       0.57153288 </v>
   <v>       0.54769129       0.74027197       0.45406079 </v>
   <v>       0.80712653       0.28137288       0.57187693 </v>
   <v>       0.74577393       0.52083690       0.57104815 </v>
   <v>       0.75320632       0.21181092       0.45488699 </v>
   <v>       0.81349475       0.53369597       0.45339121 </v>
   <v>       0.23257563       0.48534586       0.57195580 </v>
   <v>       0.19820579       0.47475659       0.63788267 </v>
   <v>       0.05675299       0.52466399       0.50316831 </v>
   <v>       0.09279328       0.49022811       0.50379046 </v>
   <v>       0.31964847       0.82238585       0.51249286 </v>
   <v>       0.28576760       0.79378165       0.57329313 </v>
   <v>       0.31007863       0.82838670       0.63902076 </v>
   <v>       0.50406350       0.30654251       0.51195740 </v>
   <v>       0.49785693       0.27178787       0.57238391 </v>
   <v>       0.48729978       0.29547919       0.63838799 </v>
   <v>       0.50054121       0.96923160       0.50311103 </v>
   <v>       0.43007261       0.93334215       0.50416953 </v>
   <v>       0.39378081       0.86391766       0.50969868 </v>
   <v>       0.50162853       0.52554533       0.50305681 </v>
   <v>       0.50319403       0.41689157       0.50447575 </v>
   <v>       0.16397723       0.62988059       0.51052127 </v>
   <v>       0.09438282       0.59503865       0.50584420 </v>
   <v>       0.20560581       0.70403966       0.51322582 </v>
   <v>       0.20405719       0.49122378       0.51137925 </v>
   <v>       0.16225541       0.52353827       0.50908093 </v>
   <v>       0.19840737       0.59391052       0.51290631 </v>
   <v>       0.22727364       0.74425318       0.45478434 </v>
   <v>       0.49826090       0.86189863       0.51033520 </v>
   <v>       0.50593044       0.08113833       0.50474333 </v>
   <v>       0.39656126       0.52785384       0.50931995 </v>
   <v>       0.43124629       0.49293183       0.50503627 </v>
   <v>       0.32241256       0.49549748       0.51162728 </v>
   <v>       0.50822948       0.19240444       0.51176751 </v>
   <v>       0.42786484       0.82763966       0.51344323 </v>
   <v>       0.50307521       0.63233270       0.50881296 </v>
   <v>       0.43268704       0.59825227       0.51205044 </v>
   <v>       0.28243035       0.47783958       0.45308093 </v>
   <v>       0.49101680       0.21513256       0.45323315 </v>
   <v>       0.54036290       0.73999670       0.57268378 </v>
   <v>       0.54976401       0.71515808       0.63850803 </v>
   <v>       0.53866601       0.04349415       0.50301676 </v>
   <v>       0.60913246       0.07950781       0.50440341 </v>
   <v>       0.53623129       0.59603583       0.50387674 </v>
   <v>       0.53771707       0.48738135       0.50334998 </v>
   <v>       0.60682875       0.41490787       0.51333198 </v>
   <v>       0.53645133       0.38070720       0.50981666 </v>
   <v>       0.53314630       0.93148180       0.50531308 </v>
   <v>       0.54068752       0.15072428       0.50945626 </v>
   <v>       0.60809686       0.52009256       0.50540188 </v>
   <v>       0.53552590       0.70644740       0.51178204 </v>
   <v>       0.53077506       0.82025594       0.51277815 </v>
   <v>       0.61105736       0.18513878       0.51272791 </v>
   <v>       0.54954004       0.79886122       0.45430820 </v>
   <v>       0.75295944       0.21993250       0.57340607 </v>
   <v>       0.72819382       0.18610116       0.63941210 </v>
   <v>       0.80719349       0.52805619       0.57209776 </v>
   <v>       0.84192953       0.53835709       0.63775336 </v>
   <v>       0.98248460       0.48847717       0.50297173 </v>
   <v>       0.94654745       0.52300505       0.50347566 </v>
   <v>       0.94474295       0.41809700       0.50538327 </v>
   <v>       0.87513829       0.38334913       0.51007206 </v>
   <v>       0.64287956       0.48530756       0.51022326 </v>
   <v>       0.71937100       0.19071395       0.51266041 </v>
   <v>       0.83338844       0.30919083       0.51295655 </v>
   <v>       0.83545648       0.52228052       0.51130461 </v>
   <v>       0.71705231       0.51783823       0.51231095 </v>
   <v>       0.84085925       0.41946386       0.51274381 </v>
   <v>       0.87711074       0.48982101       0.50876749 </v>
   <v>       0.64528044       0.14897205       0.50963265 </v>
   <v>       0.81188605       0.26849685       0.45482793 </v>
   <v>       0.75681977       0.53566632       0.45358907 </v>
   <v>       0.28814040       0.67267275       0.52218914 </v>
   <v>       0.15021154       0.47544624       0.63589055 </v>
   <v>       0.06690581       0.43580482       0.50111311 </v>
   <v>       0.41676396       0.73791052       0.52273312 </v>
   <v>       0.35405207       0.60945537       0.52084445 </v>
   <v>       0.35849732       0.87664170       0.63648230 </v>
   <v>       0.48780501       0.34407917       0.63640583 </v>
   <v>       0.40162279       0.95930551       0.50176559 </v>
   <v>       0.44876310       0.38839060       0.50206606 </v>
   <v>       0.06960702       0.62468628       0.50570840 </v>
   <v>       0.19881779       0.72877371       0.40813838 </v>
   <v>       0.45150516       0.05639156       0.50379555 </v>
   <v>       0.40146778       0.43849731       0.50464778 </v>
   <v>       0.29803266       0.46551294       0.40614039 </v>
   <v>       0.55007604       0.66699328       0.63583115 </v>
   <v>       0.59066562       0.62451229       0.50174893 </v>
   <v>       0.58757080       0.95616370       0.50453657 </v>
   <v>       0.56250113       0.82742007       0.40773005 </v>
   <v>       0.47905680       0.18750677       0.40612162 </v>
   <v>       0.75113233       0.34084831       0.52236807 </v>
   <v>       0.62201936       0.27491418       0.52160723 </v>
   <v>       0.68551667       0.40389972       0.52263746 </v>
   <v>       0.67995668       0.13765037       0.63696705 </v>
   <v>       0.89024024       0.53833724       0.63509393 </v>
   <v>       0.97247462       0.57741695       0.50075384 </v>
   <v>       0.63766754       0.05360946       0.50250258 </v>
   <v>       0.96945923       0.38838921       0.50512517 </v>
   <v>       0.63779590       0.57452460       0.50457027 </v>
   <v>       0.84043080       0.28355844       0.40822846 </v>
   <v>       0.74097518       0.54803574       0.40682195 </v>
   <v>       0.27988169       0.80717494       0.69154552 </v>
   <v>       0.21947679       0.46514671       0.69004928 </v>
   <v>       0.47797523       0.26470597       0.69058845 </v>
   <v>       0.38945624       0.75933358       0.51847814 </v>
   <v>       0.26675669       0.62398502       0.51735481 </v>
   <v>       0.40278639       0.63669869       0.51648062 </v>
   <v>       0.55738752       0.74458725       0.69130428 </v>
   <v>       0.75780443       0.20814667       0.69208179 </v>
   <v>       0.82067659       0.54702996       0.69039624 </v>
   <v>       0.63681028       0.37657505       0.51806114 </v>
   <v>       0.77254736       0.38955072       0.51767629 </v>
   <v>       0.64931929       0.25348081       0.51744518 </v>
  </varray>
 </structure>
 <calculation>
  <scstep>
   <time name="dav">  424.69  429.19</time>
   <time name="total">  424.83  429.34</time>
   <energy>
    <i name="alphaZ">     90.78767077 </i>
    <i name="ewald">  55949.03416607 </i>
    <i name="hartreedc"> -71195.67179591 </i>
    <i name="XCdc">   1569.50840645 </i>
    <i name="pawpsdc">  39678.73788392 </i>
    <i name="pawaedc"> -39765.05746775 </i>
    <i name="eentropy">     -0.00000000 </i>
    <i name="bandstr">  -5649.16860110 </i>
    <i name="atom">  18449.08413537 </i>
    <i name="e_fr_energy">   -872.74560219 </i>
    <i name="e_wo_entrp">   -872.74560219 </i>
    <i name="e_0_energy">   -872.74560219 </i>
   </energy>
  </scstep>
  <scstep>
   <time name="dav">  484.51  489.53</time>
   <time name="total">  484.51  489.53</time>
   <energy>
    <i name="e_fr_energy">   -873.67187296 </i>
    <i name="e_wo_entrp">   -873.67187296 </i>
    <i name="e_0_energy">   -873.67187296 </i>
   </energy>
  </scstep>
  <scstep>
   <time name="dav">  521.14  526.59</time>
   <time name="total">  521.14  526.60</time>
   <energy>
    <i name="e_fr_energy">   -873.69698982 </i>
    <i name="e_wo_entrp">   -873.69698982 </i>
    <i name="e_0_energy">   -873.69698982 </i>
   </energy>
  </scstep>
  <scstep>
   <time name="dav">  480.67  485.65</time>
   <time name="total">  480.68  485.65</time>
   <energy>
    <i name="e_fr_energy">   -873.69766393 </i>
    <i name="e_wo_entrp">   -873.69766393 </i>
    <i name="e_0_energy">   -873.69766393 </i>
   </energy>
  </scstep>
  <scstep>
   <time name="dav">  466.43  471.21</time>
   <time name="total">  466.43  471.22</time>
   <energy>
    <i name="e_fr_energy">   -873.69769507 </i>
    <i name="e_wo_entrp">   -873.69769507 </i>
    <i name="e_0_energy">   -873.69769507 </i>
   </energy>
  </scstep>
  <scstep>
   <time name="dav">  382.78  386.71</time>
   <time name="total">  382.79  386.71</time>
   <energy>
    <i name="alphaZ">     90.78767077 </i>
    <i name="ewald">  55949.03416607 </i>
    <i name="hartreedc"> -71195.67179591 </i>
    <i name="XCdc">   1569.50840645 </i>
    <i name="pawpsdc">  39678.73788392 </i>
    <i name="pawaedc"> -39765.05746775 </i>
    <i name="eentropy">     -0.00000000 </i>
    <i name="bandstr">  -5650.12069554 </i>
    <i name="atom">  18449.08413537 </i>
    <i name="e_fr_energy">   -873.69769662 </i>
    <i name="e_wo_entrp">   -873.69769662 </i>
    <i name="e_0_energy">   -873.69769662 </i>
   </energy>
  </scstep>
  <structure>
   <crystal>
    <varray name="basis" >
     <v>      23.07540152      -0.00246572       0.00000000 </v>
     <v>     -11.53983848      19.97992940       0.00000000 </v>
     <v>       0.00000000       0.00000000      20.00000000 </v>
    </varray>
    <i name="volume">   9220.32878253 </i>
    <varray name="rec_basis" >
     <v>       0.04333887       0.02503129       0.00000000 </v>
     <v>       0.00000535       0.05005332       0.00000000 </v>
     <v>       0.00000000       0.00000000       0.05000000 </v>
    </varray>
   </crystal>
   <varray name="positions" >
    <v>       0.23159392       0.73233790       0.57206876 </v>
    <v>       0.29395340       0.49249282       0.57051514 </v>
    <v>       0.50483009       0.21743401       0.57078231 </v>
    <v>       0.22580212       0.47989316       0.45327569 </v>
    <v>       0.28598621       0.80088428       0.45466039 </v>
    <v>       0.49303730       0.27380831       0.45365386 </v>
    <v>       0.53299993       0.79409516       0.57153288 </v>
    <v>       0.54769129       0.74027197       0.45406079 </v>
    <v>       0.80712653       0.28137288       0.57187693 </v>
    <v>       0.74577393       0.52083690       0.57104815 </v>
    <v>       0.75320632       0.21181092       0.45488699 </v>
    <v>       0.81349475       0.53369597       0.45339121 </v>
    <v>       0.23257563       0.48534586       0.57195580 </v>
    <v>       0.19820579       0.47475659       0.63788267 </v>
    <v>       0.05675299       0.52466399       0.50316831 </v>
    <v>       0.09279328       0.49022811       0.50379046 </v>
    <v>       0.31964847       0.82238585       0.51249286 </v>
    <v>       0.28576760       0.79378165       0.57329313 </v>
    <v>       0.31007863       0.82838670       0.63902076 </v>
    <v>       0.50406350       0.30654251       0.51195740 </v>
    <v>       0.49785693       0.27178787       0.57238391 </v>
    <v>       0.48729978       0.29547919       0.63838799 </v>
    <v>       0.50054121       0.96923160       0.50311103 </v>
    <v>       0.43007261       0.93334215       0.50416953 </v>
    <v>       0.39378081       0.86391766       0.50969868 </v>
    <v>       0.50162853       0.52554533       0.50305681 </v>
    <v>       0.50319403       0.41689157       0.50447575 </v>
    <v>       0.16397723       0.62988059       0.51052127 </v>
    <v>       0.09438282       0.59503865       0.50584420 </v>
    <v>       0.20560581       0.70403966       0.51322582 </v>
    <v>       0.20405719       0.49122378       0.51137925 </v>
    <v>       0.16225541       0.52353827       0.50908093 </v>
    <v>       0.19840737       0.59391052       0.51290631 </v>
    <v>       0.22727364       0.74425318       0.45478434 </v>
    <v>       0.49826090       0.86189863       0.51033520 </v>
    <v>       0.50593044       0.08113833       0.50474333 </v>
    <v>       0.39656126       0.52785384       0.50931995 </v>
    <v>       0.43124629       0.49293183       0.50503627 </v>
    <v>       0.32241256       0.49549748       0.51162728 </v>
    <v>       0.50822948       0.19240444       0.51176751 </v>
    <v>       0.42786484       0.82763966       0.51344323 </v>
    <v>       0.50307521       0.63233270       0.50881296 </v>
    <v>       0.43268704       0.59825227       0.51205044 </v>
    <v>       0.28243035       0.47783958       0.45308093 </v>
    <v>       0.49101680       0.21513256       0.45323315 </v>
    <v>       0.54036290       0.73999670       0.57268378 </v>
    <v>       0.54976401       0.71515808       0.63850803 </v>
    <v>       0.53866601       0.04349415       0.50301676 </v>
    <v>       0.60913246       0.07950781       0.50440341 </v>
    <v>       0.53623129       0.59603583       0.50387674 </v>
    <v>       0.53771707       0.48738135       0.50334998 </v>
    <v>       0.60682875       0.41490787       0.51333198 </v>
    <v>       0.53645133       0.38070720       0.50981666 </v>
    <v>       0.53314630       0.93148180       0.50531308 </v>
    <v>       0.54068752       0.15072428       0.50945626 </v>
    <v>       0.60809686       0.52009256       0.50540188 </v>
    <v>       0.53552590       0.70644740       0.51178204 </v>
    <v>       0.53077506       0.82025594       0.51277815 </v>
    <v>       0.61105736       0.18513878       0.51272791 </v>
    <v>       0.54954004       0.79886122       0.45430820 </v>
    <v>       0.75295944       0.21993250       0.57340607 </v>
    <v>       0.72819382       0.18610116       0.63941210 </v>
    <v>       0.80719349       0.52805619       0.57209776 </v>
    <v>       0.84192953       0.53835709       0.63775336 </v>
    <v>       0.98248460       0.48847717       0.50297173 </v>
    <v>       0.94654745       0.52300505       0.50347566 </v>
    <v>       0.94474295       0.41809700       0.50538327 </v>
    <v>       0.87513829       0.38334913       0.51007206 </v>
    <v>       0.64287956       0.48530756       0.51022326 </v>
    <v>       0.71937100       0.19071395       0.51266041 </v>
    <v>       0.83338844       0.30919083       0.51295655 </v>
    <v>       0.83545648       0.52228052       0.51130461 </v>
    <v>       0.71705231       0.51783823       0.51231095 </v>
    <v>       0.84085925       0.41946386       0.51274381 </v>
    <v>       0.87711074       0.48982101       0.50876749 </v>
    <v>       0.64528044       0.14897205       0.50963265 </v>
    <v>       0.81188605       0.26849685       0.45482793 </v>
    <v>       0.75681977       0.53566632       0.45358907 </v>
    <v>       0.28814040       0.67267275       0.52218914 </v>
    <v>       0.15021154       0.47544624       0.63589055 </v>
    <v>       0.06690581       0.43580482       0.50111311 </v>
    <v>       0.41676396       0.73791052       0.52273312 </v>
    <v>       0.35405207       0.60945537       0.52084445 </v>
    <v>       0.35849732       0.87664170       0.63648230 </v>
    <v>       0.48780501       0.34407917       0.63640583 </v>
    <v>       0.40162279       0.95930551       0.50176559 </v>
    <v>       0.44876310       0.38839060       0.50206606 </v>
    <v>       0.06960702       0.62468628       0.50570840 </v>
    <v>       0.19881779       0.72877371       0.40813838 </v>
    <v>       0.45150516       0.05639156       0.50379555 </v>
    <v>       0.40146778       0.43849731       0.50464778 </v>
    <v>       0.29803266       0.46551294       0.40614039 </v>
    <v>       0.55007604       0.66699328       0.63583115 </v>
    <v>       0.59066562       0.62451229       0.50174893 </v>
    <v>       0.58757080       0.95616370       0.50453657 </v>
    <v>       0.56250113       0.82742007       0.40773005 </v>
    <v>       0.47905680       0.18750677       0.40612162 </v>
    <v>       0.75113233       0.34084831       0.52236807 </v>
    <v>       0.62201936       0.27491418       0.52160723 </v>
    <v>       0.68551667       0.40389972       0.52263746 </v>
    <v>       0.67995668       0.13765037       0.63696705 </v>
    <v>       0.89024024       0.53833724       0.63509393 </v>
    <v>       0.97247462       0.57741695       0.50075384 </v>
    <v>       0.63766754       0.05360946       0.50250258 </v>
    <v>       0.96945923       0.38838921       0.50512517 </v>
    <v>       0.63779590       0.57452460       0.50457027 </v>
    <v>       0.84043080       0.28355844       0.40822846 </v>
    <v>       0.74097518       0.54803574       0.40682195 </v>
    <v>       0.27988169       0.80717494       0.69154552 </v>
    <v>       0.21947679       0.46514671       0.69004928 </v>
    <v>       0.47797523       0.26470597       0.69058845 </v>
    <v>       0.38945624       0.75933358       0.51847814 </v>
    <v>       0.26675669       0.62398502       0.51735481 </v>
    <v>       0.40278639       0.63669869       0.51648062 </v>
    <v>       0.55738752       0.74458725       0.69130428 </v>
    <v>       0.75780443       0.20814667       0.69208179 </v>
    <v>       0.82067659       0.54702996       0.69039624 </v>
    <v>       0.63681028       0.37657505       0.51806114 </v>
    <v>       0.77254736       0.38955072       0.51767629 </v>
    <v>       0.64931929       0.25348081       0.51744518 </v>
   </varray>
  </structure>
  <varray name="forces" >
   <v>      -0.00059158       0.00182426       0.00001988 </v>
   <v>      -0.00051749       0.00169004       0.00441774 </v>
   <v>       0.00465793       0.00303211       0.00114217 </v>
   <v>       0.00395242       0.00261090       0.00598640 </v>
   <v>      -0.00058788      -0.00143970       0.00028381 </v>
   <v>      -0.00168613       0.00435356       0.00157660 </v>
   <v>       0.00088462      -0.00161123       0.00124337 </v>
   <v>       0.00060770       0.00235234      -0.00143392 </v>
   <v>      -0.00106687       0.00372779      -0.00280534 </v>
   <v>      -0.00193760      -0.00216801       0.00239820 </v>
   <v>       0.00076626       0.00172688       0.00172780 </v>
   <v>      -0.00322142       0.00036310       0.00317811 </v>
   <v>       0.00379813       0.00076873      -0.00163423 </v>
   <v>      -0.00010535       0.00311873      -0.00451959 </v>
   <v>       0.00710433       0.00103795       0.00228949 </v>
   <v>      -0.00038589      -0.00329328       0.00169428 </v>
   <v>      -0.00029574       0.00136383       0.00171857 </v>
   <v>      -0.00155853       0.00349162      -0.00317404 </v>
   <v>       0.00619095       0.00252574      -0.00065626 </v>
   <v>      -0.00189170      -0.00524008      -0.00076958 </v>
   <v>      -0.00004283      -0.00232054      -0.00022690 </v>
   <v>      -0.00007671       0.00010003      -0.00464146 </v>
   <v>      -0.00088570       0.00066160       0.00050592 </v>
   <v>      -0.00032307      -0.00235293       0.00164340 </v>
   <v>       0.00074713      -0.00116622       0.00135945 </v>
   <v>       0.00218654       0.00088852       0.00355282 </v>
   <v>      -0.00182503       0.00147704      -0.00012466 </v>
   <v>      -0.00132385       0.00046389       0.00335469 </v>
   <v>       0.00186856       0.00210458       0.00058034 </v>
   <v>      -0.00081128       0.00189535       0.00524962 </v>
   <v>      -0.00265149      -0.00366057      -0.00494049 </v>
   <v>      -0.00282270      -0.00004669       0.00053154 </v>
   <v>      -0.00545036      -0.00143313      -0.00009827 </v>
   <v>       0.00183828       0.00300086       0.00022326 </v>
   <v>      -0.00097490      -0.00335124       0.00301520 </v>
   <v>      -0.00101344       0.00019255      -0.00109804 </v>
   <v>      -0.00411582      -0.00138531      -0.00367393 </v>
   <v>      -0.00109430       0.00078600      -0.00180057 </v>
   <v>      -0.00167932      -0.00041519      -0.00227597 </v>
   <v>      -0.00122862      -0.00209380       0.00263206 </v>
   <v>       0.00196556       0.00306714      -0.00066071 </v>
   <v>      -0.00341659       0.00124814      -0.00150572 </v>
   <v>       0.00038114      -0.00397357       0.00158242 </v>
   <v>      -0.00096578      -0.00041861      -0.00067432 </v>
   <v>      -0.00625753       0.00117607      -0.00336032 </v>
   <v>       0.00026164       0.00073122      -0.00253069 </v>
   <v>       0.00108962      -0.00404530       0.00046389 </v>
   <v>      -0.00114641       0.00246245       0.00168268 </v>
   <v>       0.00104785      -0.00199263      -0.00079563 </v>
   <v>       0.00039939       0.00466073       0.00076860 </v>
   <v>       0.00176804      -0.00258256       0.00038715 </v>
   <v>      -0.00502743       0.00221361      -0.00341898 </v>
   <v>      -0.00306872      -0.00034901      -0.00147240 </v>
   <v>      -0.00159456      -0.00203138      -0.00037023 </v>
   <v>      -0.00094621      -0.00048097      -0.00151642 </v>
   <v>       0.00166245      -0.00178369       0.00166012 </v>
   <v>       0.00134706      -0.00103911      -0.00047273 </v>
   <v>       0.00062596      -0.00217195       0.00273884 </v>
   <v>      -0.00200564      -0.00290607       0.00029708 </v>
   <v>      -0.00136338       0.00001577       0.00098145 </v>
   <v>      -0.00043285       0.00111464      -0.00135191 </v>
   <v>      -0.00267869       0.00021410       0.00180115 </v>
   <v>      -0.00222909      -0.00223907      -0.00224615 </v>
   <v>       0.00102003      -0.00114282      -0.00018985 </v>
   <v>       0.00139693      -0.00104031       0.00082756 </v>
   <v>      -0.00070220       0.00333407       0.00070574 </v>
   <v>      -0.00076426      -0.00327933       0.00002368 </v>
   <v>      -0.00093211      -0.00091075       0.00026267 </v>
   <v>       0.00323066      -0.00172265       0.00046990 </v>
   <v>      -0.00077301       0.00072002      -0.00125497 </v>
   <v>      -0.00293781       0.00133431       0.00200178 </v>
   <v>      -0.00009121       0.00244976      -0.00138522 </v>
   <v>       0.00400153      -0.00034930      -0.00183618 </v>
   <v>       0.00051039      -0.00312962       0.00032592 </v>
   <v>      -0.00028674      -0.00271993       0.00174536 </v>
   <v>      -0.00068051      -0.00240455      -0.00211884 </v>
   <v>      -0.00035294      -0.00041729       0.00174188 </v>
   <v>       0.00111131       0.00052752      -0.00052837 </v>
   <v>       0.00034277       0.00197663      -0.00197041 </v>
   <v>      -0.00045594      -0.00130338      -0.00180127 </v>
   <v>       0.00179509       0.00054925      -0.00212548 </v>
   <v>       0.00193883      -0.00094196       0.00045853 </v>
   <v>      -0.00021718      -0.00073949      -0.00342734 </v>
   <v>       0.00181556      -0.00177830       0.00114189 </v>
   <v>      -0.00273135       0.00118493      -0.00004197 </v>
   <v>      -0.00096665      -0.00078074      -0.00070151 </v>
   <v>       0.00235973      -0.00201301       0.00010079 </v>
   <v>      -0.00179415       0.00139880       0.00058648 </v>
   <v>      -0.00228824       0.00234419       0.00043910 </v>
   <v>       0.00082960       0.00005083       0.00110507 </v>
   <v>      -0.00016523      -0.00079353      -0.00201637 </v>
   <v>       0.00056307      -0.00027131      -0.00204801 </v>
   <v>      -0.00044419      -0.00138711      -0.00081540 </v>
   <v>       0.00175491      -0.00044501       0.00123123 </v>
   <v>       0.00184976       0.00096695       0.00003059 </v>
   <v>       0.00306953      -0.00048098      -0.00037008 </v>
   <v>      -0.00184236      -0.00151027      -0.00308435 </v>
   <v>       0.00121302      -0.00078468       0.00000975 </v>
   <v>      -0.00284150      -0.00128395      -0.00239883 </v>
   <v>       0.00224947       0.00136076      -0.00381312 </v>
   <v>      -0.00214611      -0.00107973       0.00063902 </v>
   <v>      -0.00179554      -0.00099314      -0.00270201 </v>
   <v>       0.00018377       0.00288312      -0.00040355 </v>
   <v>       0.00006243      -0.00067414      -0.00119736 </v>
   <v>       0.00101057      -0.00084631       0.00119945 </v>
   <v>       0.00132201       0.00025479       0.00048494 </v>
   <v>       0.00281339       0.00290509      -0.00078049 </v>
   <v>       0.00049493       0.00074252      -0.00026704 </v>
   <v>       0.00508161      -0.00355319       0.00771453 </v>
   <v>       0.00486471      -0.00009191       0.00668321 </v>
   <v>      -0.00060394      -0.00180219       0.00354970 </v>
   <v>       0.00092655       0.00409107       0.00014123 </v>
   <v>       0.00214321      -0.00426302      -0.00157643 </v>
   <v>      -0.00086616       0.00256226      -0.00045750 </v>
   <v>       0.00182903       0.00363163       0.00391939 </v>
   <v>       0.00042189       0.00266871       0.00250848 </v>
   <v>      -0.00239016      -0.00071881       0.00186506 </v>
   <v>       0.00360539      -0.00391002      -0.00454094 </v>
   <v>      -0.00093103       0.00399216      -0.00355020 </v>
   <v>       0.00033576       0.00316334      -0.00294848 </v>
  </varray>
  <varray name="stress" >
   <v>       0.00108649      -0.00042363      -0.01442427 </v>
   <v>      -0.00042364       0.00294484       0.00506312 </v>
   <v>      -0.01442427       0.00506312      -0.33350893 </v>
  </varray>
  <energy>
   <i name="e_fr_energy">   -876.95953743 </i>
   <i name="e_wo_entrp">   -876.95953743 </i>
   <i name="e_0_energy">     -0.00000000 </i>
  </energy>
  <time name="totalsc"> 3239.13 3273.87</time>
  <eigenvalues>
   <array>
    <dimension dim="1">band</dimension>
    <dimension dim="2">kpoint</dimension>
    <dimension dim="3">spin</dimension>
    <field>eigene</field>
    <field>occ</field>
    <set>
     <set comment="spin 1">
      <set comment="kpoint 1">
       <r>  -26.9631    1.0000 </r>
       <r>  -26.9629    1.0000 </r>
       <r>  -26.8164    1.0000 </r>
       <r>  -26.8160    1.0000 </r>
       <r>  -26.8148    1.0000 </r>
       <r>  -26.8124    1.0000 </r>
       <r>  -25.7799    1.0000 </r>
       <r>  -25.7784    1.0000 </r>
       <r>  -25.7750    1.0000 </r>
       <r>  -25.7745    1.0000 </r>
       <r>  -25.7736    1.0000 </r>
       <r>  -25.7735    1.0000 </r>
       <r>  -24.8342    1.0000 </r>
       <r>  -24.8341    1.0000 </r>
       <r>  -24.8333    1.0000 </r>
       <r>  -24.8333    1.0000 </r>
       <r>  -24.8141    1.0000 </r>
       <r>  -24.8138    1.0000 </r>
       <r>  -22.9138    1.0000 </r>
       <r>  -22.9128    1.0000 </r>
       <r>  -22.9078    1.0000 </r>
       <r>  -22.9076    1.0000 </r>
       <r>  -22.9010    1.0000 </r>
       <r>  -22.8992    1.0000 </r>
       <r>  -21.8485    1.0000 </r>
       <r>  -21.8468    1.0000 </r>
       <r>  -21.8322    1.0000 </r>
       <r>  -21.4615    1.0000 </r>
       <r>  -21.4605    1.0000 </r>
       <r>  -21.3794    1.0000 </r>
       <r>  -20.5341    1.0000 </r>
       <r>  -20.5204    1.0000 </r>
       <r>  -20.2987    1.0000 </r>
       <r>  -20.2986    1.0000 </r>
       <r>  -20.0451    1.0000 </r>
       <r>  -20.0443    1.0000 </r>
       <r>  -19.6248    1.0000 </r>
       <r>  -19.4858    1.0000 </r>
       <r>  -19.4855    1.0000 </r>
       <r>  -19.0810    1.0000 </r>
       <r>  -19.0808    1.0000 </r>
       <r>  -18.6109    1.0000 </r>
       <r>  -18.6104    1.0000 </r>
       <r>  -18.3431    1.0000 </r>
       <r>  -18.2210    1.0000 </r>
       <r>  -18.0925    1.0000 </r>
       <r>  -17.8603    1.0000 </r>
       <r>  -17.8599    1.0000 </r>
       <r>  -17.0722    1.0000 </r>
       <r>  -17.0715    1.0000 </r>
       <r>  -17.0684    1.0000 </r>
       <r>  -17.0677    1.0000 </r>
       <r>  -17.0514    1.0000 </r>
       <r>  -17.0296    1.0000 </r>
       <r>  -16.8998    1.0000 </r>
       <r>  -16.8987    1.0000 </r>
       <r>  -16.7021    1.0000 </r>
       <r>  -16.6972    1.0000 </r>
       <r>  -16.4939    1.0000 </r>
       <r>  -16.4935    1.0000 </r>
       <r>  -15.9555    1.0000 </r>
       <r>  -15.8701    1.0000 </r>
       <r>  -15.8364    1.0000 </r>
       <r>  -15.8354    1.0000 </r>
       <r>  -15.2583    1.0000 </r>
       <r>  -15.2574    1.0000 </r>
       <r>  -15.2307    1.0000 </r>
       <r>  -14.8804    1.0000 </r>
       <r>  -14.8799    1.0000 </r>
       <r>  -14.6728    1.0000 </r>
       <r>  -14.6003    1.0000 </r>
       <r>  -14.5992    1.0000 </r>
       <r>  -14.4531    1.0000 </r>
       <r>  -14.4519    1.0000 </r>
       <r>  -14.4484    1.0000 </r>
       <r>  -14.4477    1.0000 </r>
       <r>  -14.4076    1.0000 </r>
       <r>  -14.3902    1.0000 </r>
       <r>  -13.8759    1.0000 </r>
       <r>  -13.7674    1.0000 </r>
       <r>  -13.7580    1.0000 </r>
       <r>  -13.7566    1.0000 </r>
       <r>  -13.7422    1.0000 </r>
       <r>  -13.7412    1.0000 </r>
       <r>  -13.2849    1.0000 </r>
       <r>  -13.2139    1.0000 </r>
       <r>  -13.2129    1.0000 </r>
       <r>  -13.0389    1.0000 </r>
       <r>  -13.0273    1.0000 </r>
       <r>  -13.0259    1.0000 </r>
       <r>  -13.0090    1.0000 </r>
       <r>  -13.0076    1.0000 </r>
       <r>  -12.9704    1.0000 </r>
       <r>  -12.5682    1.0000 </r>
       <r>  -12.5666    1.0000 </r>
       <r>  -12.5153    1.0000 </r>
       <r>  -12.3535    1.0000 </r>
       <r>  -12.2392    1.0000 </r>
       <r>  -12.2382    1.0000 </r>
       <r>  -12.1240    1.0000 </r>
       <r>  -12.1213    1.0000 </r>
       <r>  -11.8689    1.0000 </r>
       <r>  -11.7471    1.0000 </r>
       <r>  -11.7465    1.0000 </r>
       <r>  -11.6670    1.0000 </r>
       <r>  -11.6364    1.0000 </r>
       <r>  -11.6347    1.0000 </r>
       <r>  -11.5996    1.0000 </r>
       <r>  -11.3796    1.0000 </r>
       <r>  -11.3479    1.0000 </r>
       <r>  -11.3403    1.0000 </r>
       <r>  -11.3385    1.0000 </r>
       <r>  -11.1216    1.0000 </r>
       <r>  -11.1196    1.0000 </r>
       <r>  -11.1186    1.0000 </r>
       <r>  -10.9946    1.0000 </r>
       <r>  -10.9938    1.0000 </r>
       <r>  -10.7828    1.0000 </r>
       <r>  -10.7823    1.0000 </r>
       <r>  -10.7496    1.0000 </r>
       <r>  -10.6990    1.0000 </r>
       <r>  -10.6972    1.0000 </r>
       <r>  -10.4439    1.0000 </r>
       <r>  -10.4433    1.0000 </r>
       <r>  -10.4411    1.0000 </r>
       <r>  -10.3045    1.0000 </r>
       <r>  -10.2971    1.0000 </r>
       <r>  -10.2946    1.0000 </r>
       <r>  -10.2641    1.0000 </r>
       <r>  -10.2502    1.0000 </r>
       <r>  -10.1936    1.0000 </r>
       <r>  -10.1783    1.0000 </r>
       <r>  -10.1757    1.0000 </r>
       <r>   -9.9750    1.0000 </r>
       <r>   -9.9723    1.0000 </r>
       <r>   -9.9714    1.0000 </r>
       <r>   -9.9656    1.0000 </r>
       <r>   -9.9611    1.0000 </r>
       <r>   -9.9610    1.0000 </r>
       <r>   -9.9261    1.0000 </r>
       <r>   -9.9251    1.0000 </r>
       <r>   -9.8304    1.0000 </r>
       <r>   -9.8288    1.0000 </r>
       <r>   -9.8247    1.0000 </r>
       <r>   -9.6975    1.0000 </r>
       <r>   -9.6950    1.0000 </r>
       <r>   -9.5832    1.0000 </r>
       <r>   -9.5657    1.0000 </r>
       <r>   -9.5652    1.0000 </r>
       <r>   -9.4173    1.0000 </r>
       <r>   -9.3480    1.0000 </r>
       <r>   -9.3446    1.0000 </r>
       <r>   -9.3425    1.0000 </r>
       <r>   -9.2609    1.0000 </r>
       <r>   -9.2596    1.0000 </r>
       <r>   -9.2095    1.0000 </r>
       <r>   -9.1093    1.0000 </r>
       <r>   -9.0855    1.0000 </r>
       <r>   -9.0814    1.0000 </r>
       <r>   -8.9558    1.0000 </r>
       <r>   -8.9523    1.0000 </r>
       <r>   -8.7407    1.0000 </r>
       <r>   -8.7399    1.0000 </r>
       <r>   -8.6896    1.0000 </r>
       <r>   -8.5666    1.0000 </r>
       <r>   -8.2323    1.0000 </r>
       <r>   -8.1848    1.0000 </r>
       <r>   -8.1825    1.0000 </r>
       <r>   -8.1605    1.0000 </r>
       <r>   -8.1591    1.0000 </r>
       <r>   -8.1207    1.0000 </r>
       <r>   -8.0607    1.0000 </r>
       <r>   -8.0593    1.0000 </r>
       <r>   -8.0382    1.0000 </r>
       <r>   -8.0337    1.0000 </r>
       <r>   -8.0304    1.0000 </r>
       <r>   -8.0065    1.0000 </r>
       <r>   -7.4262    1.0000 </r>
       <r>   -7.4250    1.0000 </r>
       <r>   -7.4196    1.0000 </r>
       <r>   -7.4177    1.0000 </r>
       <r>   -7.3368    1.0000 </r>
       <r>   -7.2750    1.0000 </r>
       <r>   -6.8587    1.0000 </r>
       <r>   -6.7673    1.0000 </r>
       <r>   -6.6952    1.0000 </r>
       <r>   -6.6915    1.0000 </r>
       <r>   -6.6833    1.0000 </r>
       <r>   -6.6803    1.0000 </r>
       <r>   -6.5085    1.0000 </r>
       <r>   -6.5047    1.0000 </r>
       <r>   -6.4503    1.0000 </r>
       <r>   -6.4054    1.0000 </r>
       <r>   -6.4047    1.0000 </r>
       <r>   -6.3966    1.0000 </r>
       <r>   -6.3663    1.0000 </r>
       <r>   -6.2969    1.0000 </r>
       <r>   -6.2935    1.0000 </r>
       <r>   -6.2109    1.0000 </r>
       <r>   -6.1780    1.0000 </r>
       <r>   -6.0943    1.0000 </r>
       <r>   -6.0914    1.0000 </r>
       <r>   -6.0357    1.0000 </r>
       <r>   -6.0331    1.0000 </r>
       <r>   -5.4113    1.0000 </r>
       <r>   -5.4103    1.0000 </r>
       <r>   -5.3661    1.0000 </r>
       <r>   -5.3519    1.0000 </r>
       <r>   -5.3510    1.0000 </r>
       <r>   -5.3501    1.0000 </r>
       <r>   -5.1360    1.0000 </r>
       <r>   -5.0577    1.0000 </r>
       <r>   -5.0560    1.0000 </r>
       <r>   -3.2311    0.0000 </r>
       <r>   -3.1853    0.0000 </r>
       <r>   -3.1137    0.0000 </r>
       <r>   -3.1132    0.0000 </r>
       <r>   -3.1075    0.0000 </r>
       <r>   -3.1073    0.0000 </r>
       <r>   -2.5580    0.0000 </r>
       <r>   -2.5290    0.0000 </r>
       <r>   -2.3179    0.0000 </r>
       <r>   -2.3119    0.0000 </r>
       <r>   -2.2757    0.0000 </r>
       <r>   -2.2719    0.0000 </r>
       <r>   -1.8948    0.0000 </r>
       <r>   -1.8537    0.0000 </r>
       <r>   -1.8526    0.0000 </r>
       <r>   -1.6125    0.0000 </r>
       <r>   -1.6074    0.0000 </r>
       <r>   -1.6064    0.0000 </r>
       <r>   -1.1355    0.0000 </r>
       <r>   -1.0793    0.0000 </r>
       <r>   -1.0762    0.0000 </r>
       <r>   -0.7727    0.0000 </r>
       <r>   -0.7708    0.0000 </r>
       <r>   -0.7519    0.0000 </r>
       <r>   -0.7490    0.0000 </r>
       <r>   -0.7193    0.0000 </r>
       <r>   -0.6562    0.0000 </r>
       <r>   -0.3154    0.0000 </r>
       <r>   -0.2286    0.0000 </r>
       <r>   -0.2274    0.0000 </r>
       <r>   -0.1905    0.0000 </r>
       <r>   -0.1066    0.0000 </r>
       <r>   -0.0477    0.0000 </r>
       <r>   -0.0463    0.0000 </r>
       <r>    0.0558    0.0000 </r>
       <r>    0.0570    0.0000 </r>
       <r>    0.0597    0.0000 </r>
       <r>    0.3940    0.0000 </r>
       <r>    0.4267    0.0000 </r>
       <r>    0.5679    0.0000 </r>
       <r>    0.5703    0.0000 </r>
       <r>    0.6349    0.0000 </r>
       <r>    0.6455    0.0000 </r>
       <r>    0.6503    0.0000 </r>
       <r>    0.6512    0.0000 </r>
       <r>    0.7418    0.0000 </r>
       <r>    0.7425    0.0000 </r>
       <r>    0.8985    0.0000 </r>
       <r>    0.8994    0.0000 </r>
       <r>    0.9484    0.0000 </r>
       <r>    0.9581    0.0000 </r>
       <r>    0.9864    0.0000 </r>
       <r>    0.9892    0.0000 </r>
       <r>    1.1535    0.0000 </r>
       <r>    1.1918    0.0000 </r>
       <r>    1.1938    0.0000 </r>
       <r>    1.1950    0.0000 </r>
       <r>    1.2253    0.0000 </r>
       <r>    1.2311    0.0000 </r>
       <r>    1.2473    0.0000 </r>
       <r>    1.3231    0.0000 </r>
       <r>    1.3255    0.0000 </r>
       <r>    1.3636    0.0000 </r>
       <r>    1.3695    0.0000 </r>
       <r>    1.4173    0.0000 </r>
       <r>    1.4206    0.0000 </r>
       <r>    1.4387    0.0000 </r>
       <r>    1.4482    0.0000 </r>
       <r>    1.4501    0.0000 </r>
       <r>    1.4931    0.0000 </r>
       <r>    1.4949    0.0000 </r>
       <r>    1.5060    0.0000 </r>
       <r>    1.5739    0.0000 </r>
       <r>    1.6799    0.0000 </r>
       <r>    1.6821    0.0000 </r>
      </set>
      <set comment="kpoint 2">
       <r>  -26.9631    1.0000 </r>
       <r>  -26.9629    1.0000 </r>
       <r>  -26.8164    1.0000 </r>
       <r>  -26.8160    1.0000 </r>
       <r>  -26.8148    1.0000 </r>
       <r>  -26.8124    1.0000 </r>
       <r>  -25.7799    1.0000 </r>
       <r>  -25.7784    1.0000 </r>
       <r>  -25.7750    1.0000 </r>
       <r>  -25.7745    1.0000 </r>
       <r>  -25.7736    1.0000 </r>
       <r>  -25.7735    1.0000 </r>
       <r>  -24.8342    1.0000 </r>
       <r>  -24.8341    1.0000 </r>
       <r>  -24.8333    1.0000 </r>
       <r>  -24.8333    1.0000 </r>
       <r>  -24.8141    1.0000 </r>
       <r>  -24.8138    1.0000 </r>
       <r>  -22.9138    1.0000 </r>
       <r>  -22.9128    1.0000 </r>
       <r>  -22.9078    1.0000 </r>
       <r>  -22.9076    1.0000 </r>
       <r>  -22.9010    1.0000 </r>
       <r>  -22.8992    1.0000 </r>
       <r>  -21.8485    1.0000 </r>
       <r>  -21.8468    1.0000 </r>
       <r>  -21.8322    1.0000 </r>
       <r>  -21.4615    1.0000 </r>
       <r>  -21.4604    1.0000 </r>
       <r>  -21.3796    1.0000 </r>
       <r>  -20.5341    1.0000 </r>
       <r>  -20.5204    1.0000 </r>
       <r>  -20.2987    1.0000 </r>
       <r>  -20.2983    1.0000 </r>
       <r>  -20.0455    1.0000 </r>
       <r>  -20.0443    1.0000 </r>
       <r>  -19.6245    1.0000 </r>
       <r>  -19.4860    1.0000 </r>
       <r>  -19.4858    1.0000 </r>
       <r>  -19.0805    1.0000 </r>
       <r>  -19.0802    1.0000 </r>
       <r>  -18.6117    1.0000 </r>
       <r>  -18.6112    1.0000 </r>
       <r>  -18.3426    1.0000 </r>
       <r>  -18.2199    1.0000 </r>
       <r>  -18.0930    1.0000 </r>
       <r>  -17.8604    1.0000 </r>
       <r>  -17.8600    1.0000 </r>
       <r>  -17.0722    1.0000 </r>
       <r>  -17.0715    1.0000 </r>
       <r>  -17.0684    1.0000 </r>
       <r>  -17.0677    1.0000 </r>
       <r>  -17.0514    1.0000 </r>
       <r>  -17.0297    1.0000 </r>
       <r>  -16.8998    1.0000 </r>
       <r>  -16.8981    1.0000 </r>
       <r>  -16.7021    1.0000 </r>
       <r>  -16.6972    1.0000 </r>
       <r>  -16.4943    1.0000 </r>
       <r>  -16.4939    1.0000 </r>
       <r>  -15.9554    1.0000 </r>
       <r>  -15.8715    1.0000 </r>
       <r>  -15.8364    1.0000 </r>
       <r>  -15.8333    1.0000 </r>
       <r>  -15.2638    1.0000 </r>
       <r>  -15.2581    1.0000 </r>
       <r>  -15.2246    1.0000 </r>
       <r>  -14.8805    1.0000 </r>
       <r>  -14.8803    1.0000 </r>
       <r>  -14.6726    1.0000 </r>
       <r>  -14.6003    1.0000 </r>
       <r>  -14.5993    1.0000 </r>
       <r>  -14.4533    1.0000 </r>
       <r>  -14.4518    1.0000 </r>
       <r>  -14.4485    1.0000 </r>
       <r>  -14.4475    1.0000 </r>
       <r>  -14.4076    1.0000 </r>
       <r>  -14.3902    1.0000 </r>
       <r>  -13.8758    1.0000 </r>
       <r>  -13.7676    1.0000 </r>
       <r>  -13.7582    1.0000 </r>
       <r>  -13.7567    1.0000 </r>
       <r>  -13.7420    1.0000 </r>
[...]
       <r>   -21.8806     0.0000    48.0000 </r>
       <r>   -21.7755    57.0944    54.0000 </r>
       <r>   -21.6704     0.0000    54.0000 </r>
       <r>   -21.5653     0.0000    54.0000 </r>
       <r>   -21.4602    12.7357    55.3384 </r>
       <r>   -21.3551    27.5947    59.9999 </r>
       <r>   -21.2500     0.0000    60.0000 </r>
       <r>   -21.1449     0.0000    60.0000 </r>
       <r>   -21.0399     0.0000    60.0000 </r>
       <r>   -20.9348     0.0000    60.0000 </r>
       <r>   -20.8297     0.0000    60.0000 </r>
       <r>   -20.7246     0.0000    60.0000 </r>
       <r>   -20.6195     0.0000    60.0000 </r>
       <r>   -20.5144    35.9988    63.7831 </r>
       <r>   -20.4093     0.0000    64.0000 </r>
       <r>   -20.3042     8.6606    64.9101 </r>
       <r>   -20.1991    12.0165    67.7961 </r>
       <r>   -20.0941    10.6178    69.2825 </r>
       <r>   -19.9890    23.7893    72.0000 </r>
       <r>   -19.8839     0.0000    72.0000 </r>
       <r>   -19.7788     0.0000    72.0000 </r>
       <r>   -19.6737     0.0000    72.0000 </r>
       <r>   -19.5686    10.1576    73.0675 </r>
       <r>   -19.4635    30.4471    77.9997 </r>
       <r>   -19.3584     0.0000    78.0000 </r>
       <r>   -19.2533     0.0000    78.0000 </r>
       <r>   -19.1483     0.0000    78.0000 </r>
       <r>   -19.0432    11.9839    79.2594 </r>
       <r>   -18.9381     9.5462    81.0365 </r>
       <r>   -18.8330    16.3317    82.8830 </r>
       <r>   -18.7279     2.6983    83.2836 </r>
       <r>   -18.6228    19.2985    85.3947 </r>
       <r>   -18.5177     0.0000    86.0000 </r>
       <r>   -18.4126     0.0000    86.0000 </r>
       <r>   -18.3075     6.1087    86.6420 </r>
       <r>   -18.2025    16.5397    88.6048 </r>
       <r>   -18.0974    14.1011    90.6486 </r>
       <r>   -17.9923     9.5114    91.9995 </r>
       <r>   -17.8872    10.6806    93.3891 </r>
       <r>   -17.7821    20.9343    96.0000 </r>
       <r>   -17.6770     0.0000    96.0000 </r>
       <r>   -17.5719     0.0000    96.0000 </r>
       <r>   -17.4668     0.0000    96.0000 </r>
       <r>   -17.3617     0.0000    96.0000 </r>
       <r>   -17.2567     0.0000    96.0000 </r>
       <r>   -17.1516     0.0000    96.0000 </r>
       <r>   -17.0465    92.2237   105.6917 </r>
       <r>   -16.9414     0.0000   108.0000 </r>
       <r>   -16.8363    26.0071   110.7331 </r>
       <r>   -16.7312    11.0017   112.0228 </r>
       <r>   -16.6261    37.3497   116.9251 </r>
       <r>   -16.5210     4.2886   117.5840 </r>
       <r>   -16.4159    20.2996   120.0000 </r>
       <r>   -16.3109     0.0000   120.0000 </r>
       <r>   -16.2058     0.0000   120.0000 </r>
       <r>   -16.1007     0.0000   120.0000 </r>
       <r>   -15.9956     0.0000   120.0000 </r>
       <r>   -15.8905    34.3600   123.6109 </r>
       <r>   -15.7854    23.0837   126.4258 </r>
       <r>   -15.6803     3.4530   126.9295 </r>
       <r>   -15.5752     8.2779   127.9366 </r>
       <r>   -15.4701     7.7534   128.9815 </r>
       <r>   -15.3651     3.1129   129.4605 </r>
       <r>   -15.2600     4.8537   130.0767 </r>
       <r>   -15.1549    14.8957   132.4321 </r>
       <r>   -15.0498     4.0073   132.9878 </r>
       <r>   -14.9447    16.5128   135.1020 </r>
       <r>   -14.8396    25.6925   138.0000 </r>
       <r>   -14.7345     0.0000   138.0000 </r>
       <r>   -14.6294    19.8755   140.0887 </r>
       <r>   -14.5243    24.1062   144.0000 </r>
       <r>   -14.4193    76.4763   152.0368 </r>
       <r>   -14.3142     7.6122   156.0000 </r>
       <r>   -14.2091     0.0000   156.0000 </r>
       <r>   -14.1040     0.0000   156.0000 </r>
       <r>   -13.9989     0.0000   156.0000 </r>
       <r>   -13.8938     0.0132   156.0014 </r>
       <r>   -13.7887    27.7348   159.3480 </r>
       <r>   -13.6836    64.0720   168.0000 </r>
       <r>   -13.5785     0.0000   168.0000 </r>
       <r>   -13.4735     0.0000   168.0000 </r>
       <r>   -13.3684     0.0000   168.0000 </r>
       <r>   -13.2633    14.2008   169.4924 </r>
       <r>   -13.1582    28.2300   174.0000 </r>
       <r>   -13.0531     0.2219   174.0233 </r>
       <r>   -12.9480    82.7817   185.9997 </r>
       <r>   -12.8429     0.0000   186.0000 </r>
       <r>   -12.7378     0.0000   186.0000 </r>
       <r>   -12.6327     0.0000   186.0000 </r>
       <r>   -12.5277    50.2209   191.2777 </r>
       <r>   -12.4226     0.0000   192.0000 </r>
       <r>   -12.3175     9.5654   193.0052 </r>
       <r>   -12.2124    38.0624   198.0000 </r>
       <r>   -12.1073     7.0982   198.7459 </r>
       <r>   -12.0022    14.9907   200.8754 </r>
       <r>   -11.8971    18.1161   203.9038 </r>
       <r>   -11.7920     6.7302   205.4739 </r>
       <r>   -11.6869    25.9733   208.4962 </r>
       <r>   -11.5818    64.3038   215.9910 </r>
       <r>   -11.4768     0.0000   216.0000 </r>
       <r>   -11.3717    33.4196   219.5120 </r>
       <r>   -11.2666    20.9626   223.7030 </r>
       <r>   -11.1615    13.5096   225.6197 </r>
       <r>   -11.0564    27.2489   228.6969 </r>
       <r>   -10.9513    32.0958   232.8396 </r>
       <r>   -10.8462     6.0563   234.1031 </r>
       <r>   -10.7411    35.0445   238.8161 </r>
       <r>   -10.6360    28.6901   243.0150 </r>
       <r>   -10.5310    12.8859   245.0208 </r>
       <r>   -10.4259    31.7433   248.5359 </r>
       <r>   -10.3208    18.1046   250.8359 </r>
       <r>   -10.2157    41.7558   259.0883 </r>
       <r>   -10.1106    28.3754   265.7153 </r>
       <r>   -10.0055    13.1738   267.4844 </r>
       <r>    -9.9004   131.1955   282.2206 </r>
       <r>    -9.7953    29.2045   285.9691 </r>
       <r>    -9.6902    27.4386   290.2502 </r>
       <r>    -9.5852    16.3696   292.3869 </r>
       <r>    -9.4801    39.2155   299.0211 </r>
       <r>    -9.3750     6.9806   300.0003 </r>
       <r>    -9.2699    55.5475   306.0710 </r>
       <r>    -9.1648    32.3530   312.0000 </r>
       <r>    -9.0597    56.4042   317.9275 </r>
       <r>    -8.9546    18.4660   319.9406 </r>
       <r>    -8.8495    11.1470   321.8381 </r>
       <r>    -8.7444    15.7107   323.8177 </r>
       <r>    -8.6394    20.8874   328.1950 </r>
       <r>    -8.5343     9.5157   330.0000 </r>
       <r>    -8.4292     0.0000   330.0000 </r>
       <r>    -8.3241     0.0000   330.0000 </r>
       <r>    -8.2190     7.3477   330.7722 </r>
       <r>    -8.1139    92.2567   341.6285 </r>
       <r>    -8.0088    94.7943   353.0285 </r>
       <r>    -7.9037     0.0000   354.0000 </r>
       <r>    -7.7986     0.0000   354.0000 </r>
       <r>    -7.6936     0.0000   354.0000 </r>
       <r>    -7.5885     0.0000   354.0000 </r>
       <r>    -7.4834     0.0000   354.0000 </r>
       <r>    -7.3783    76.1259   362.0000 </r>
       <r>    -7.2732    36.2198   365.8063 </r>
       <r>    -7.1681     0.0000   366.0000 </r>
       <r>    -7.0630     0.0000   366.0000 </r>
       <r>    -6.9579     0.0000   366.0000 </r>
       <r>    -6.8528     4.4599   366.4687 </r>
       <r>    -6.7478    21.8807   369.9994 </r>
       <r>    -6.6427    76.0781   377.9950 </r>
       <r>    -6.5376     0.0000   378.0000 </r>
       <r>    -6.4325    57.0703   383.9975 </r>
       <r>    -6.3274    86.3099   393.0704 </r>
       <r>    -6.2223     9.0954   396.0225 </r>
       <r>    -6.1172    23.4737   400.0002 </r>
       <r>    -6.0121    73.2625   407.9991 </r>
       <r>    -5.9070     0.0000   408.0000 </r>
       <r>    -5.8020     0.0000   408.0000 </r>
       <r>    -5.6969     0.0000   408.0000 </r>
       <r>    -5.5918     0.0000   408.0000 </r>
       <r>    -5.4867     0.0000   408.0000 </r>
       <r>    -5.3816    42.6253   412.4794 </r>
       <r>    -5.2765    44.7221   420.0000 </r>
       <r>    -5.1714     0.0000   420.0000 </r>
       <r>    -5.0663    33.7760   423.5495 </r>
       <r>    -4.9612     0.0000   426.0000 </r>
       <r>    -4.8562     0.0000   426.0000 </r>
       <r>    -4.7511     0.0000   426.0000 </r>
       <r>    -4.6460     0.0000   426.0000 </r>
       <r>    -4.5409     0.0000   426.0000 </r>
       <r>    -4.4358     0.0000   426.0000 </r>
       <r>    -4.3307     0.0000   426.0000 </r>
       <r>    -4.2256     0.0000   426.0000 </r>
       <r>    -4.1205     0.0000   426.0000 </r>
       <r>    -4.0154     0.0000   426.0000 </r>
       <r>    -3.9104     0.0000   426.0000 </r>
       <r>    -3.8053     0.0000   426.0000 </r>
       <r>    -3.7002     0.0000   426.0000 </r>
       <r>    -3.5951     0.0000   426.0000 </r>
       <r>    -3.4900     0.0000   426.0000 </r>
       <r>    -3.3849     0.0000   426.0000 </r>
       <r>    -3.2798     0.0000   426.0000 </r>
       <r>    -3.1747    37.8153   429.9740 </r>
       <r>    -3.0696    76.1245   437.9998 </r>
       <r>    -2.9646     0.0000   438.0000 </r>
       <r>    -2.8595     0.0000   438.0000 </r>
       <r>    -2.7544     0.0000   438.0000 </r>
       <r>    -2.6493     0.0000   438.0000 </r>
       <r>    -2.5442    18.5516   439.9496 </r>
       <r>    -2.4391     0.0000   442.0000 </r>
       <r>    -2.3340     0.0511   442.0054 </r>
       <r>    -2.2289    51.0676   450.0000 </r>
       <r>    -2.1238     0.0000   450.0000 </r>
       <r>    -2.0188     0.0000   450.0000 </r>
       <r>    -1.9137     0.0150   450.0016 </r>
       <r>    -1.8086    49.7989   456.0000 </r>
       <r>    -1.7035     0.0000   456.0000 </r>
       <r>    -1.5984    43.8793   460.6112 </r>
       <r>    -1.4933     0.0000   462.0000 </r>
       <r>    -1.3882     0.0000   462.0000 </r>
       <r>    -1.2831     0.0000   462.0000 </r>
       <r>    -1.1780     0.0000   462.0000 </r>
       <r>    -1.0729    53.9432   467.6688 </r>
       <r>    -0.9679     0.0000   468.0000 </r>
       <r>    -0.8628     0.0000   468.0000 </r>
       <r>    -0.7577    50.3410   473.2903 </r>
       <r>    -0.6526    36.6194   479.8483 </r>
       <r>    -0.5475     0.0000   480.0000 </r>
       <r>    -0.4424     0.0000   480.0000 </r>
       <r>    -0.3373     0.0021   480.0002 </r>
       <r>    -0.2322    31.7581   483.6374 </r>
       <r>    -0.1271    31.0260   489.6272 </r>
       <r>    -0.0221    25.5765   493.0545 </r>
       <r>     0.0830    30.3612   496.7573 </r>
       <r>     0.1881    17.7876   499.0693 </r>
       <r>     0.2932    12.4641   501.0765 </r>
       <r>     0.3983     6.8507   501.9199 </r>
       <r>     0.5034    21.6405   505.0075 </r>
       <r>     0.6085    53.3968   510.8781 </r>
       <r>     0.7136    38.3352   516.0953 </r>
       <r>     0.8187    25.6920   520.0000 </r>
       <r>     0.9237     7.8212   520.8219 </r>
       <r>     1.0288    66.0971   528.3461 </r>
       <r>     1.1339    52.4572   535.4127 </r>
       <r>     1.2390    66.8812   544.1618 </r>
       <r>     1.3441    49.0559   551.0219 </r>
       <r>     1.4492    51.9486   557.7926 </r>
       <r>     1.5543    83.0533   569.1280 </r>
       <r>     1.6594    35.9076   574.5735 </r>
       <r>     1.7645     6.3437   576.0000 </r>
       <r>     1.8695     0.0000   576.0000 </r>
       <r>     1.9746     0.0000   576.0000 </r>
       <r>     2.0797     0.0000   576.0000 </r>
       <r>     2.1848     0.0000   576.0000 </r>
       <r>     2.2899     0.0000   576.0000 </r>
       <r>     2.3950     0.0000   576.0000 </r>
       <r>     2.5001     0.0000   576.0000 </r>
       <r>     2.6052     0.0000   576.0000 </r>
       <r>     2.7103     0.0000   576.0000 </r>
       <r>     2.8153     0.0000   576.0000 </r>
       <r>     2.9204     0.0000   576.0000 </r>
       <r>     3.0255     0.0000   576.0000 </r>
       <r>     3.1306     0.0000   576.0000 </r>
      </set>
     </set>
    </array>
   </total>
  </dos>
 </calculation>
 <structure name="finalpos" >
  <crystal>
   <varray name="basis" >
    <v>      23.07540152      -0.00246572       0.00000000 </v>
    <v>     -11.53983848      19.97992940       0.00000000 </v>
    <v>       0.00000000       0.00000000      20.00000000 </v>
   </varray>
   <i name="volume">   9220.32878253 </i>
   <varray name="rec_basis" >
    <v>       0.04333887       0.02503129       0.00000000 </v>
    <v>       0.00000535       0.05005332       0.00000000 </v>
    <v>       0.00000000       0.00000000       0.05000000 </v>
   </varray>
  </crystal>
  <varray name="positions" >
   <v>       0.23159392       0.73233790       0.57206876 </v>
   <v>       0.29395340       0.49249282       0.57051514 </v>
   <v>       0.50483009       0.21743401       0.57078231 </v>
   <v>       0.22580212       0.47989316       0.45327569 </v>
   <v>       0.28598621       0.80088428       0.45466039 </v>
   <v>       0.49303730       0.27380831       0.45365386 </v>
   <v>       0.53299993       0.79409516       0.57153288 </v>
   <v>       0.54769129       0.74027197       0.45406079 </v>
   <v>       0.80712653       0.28137288       0.57187693 </v>
   <v>       0.74577393       0.52083690       0.57104815 </v>
   <v>       0.75320632       0.21181092       0.45488699 </v>
   <v>       0.81349475       0.53369597       0.45339121 </v>
   <v>       0.23257563       0.48534586       0.57195580 </v>
   <v>       0.19820579       0.47475659       0.63788267 </v>
   <v>       0.05675299       0.52466399       0.50316831 </v>
   <v>       0.09279328       0.49022811       0.50379046 </v>
   <v>       0.31964847       0.82238585       0.51249286 </v>
   <v>       0.28576760       0.79378165       0.57329313 </v>
   <v>       0.31007863       0.82838670       0.63902076 </v>
   <v>       0.50406350       0.30654251       0.51195740 </v>
   <v>       0.49785693       0.27178787       0.57238391 </v>
   <v>       0.48729978       0.29547919       0.63838799 </v>
   <v>       0.50054121       0.96923160       0.50311103 </v>
   <v>       0.43007261       0.93334215       0.50416953 </v>
   <v>       0.39378081       0.86391766       0.50969868 </v>
   <v>       0.50162853       0.52554533       0.50305681 </v>
   <v>       0.50319403       0.41689157       0.50447575 </v>
   <v>       0.16397723       0.62988059       0.51052127 </v>
   <v>       0.09438282       0.59503865       0.50584420 </v>
   <v>       0.20560581       0.70403966       0.51322582 </v>
   <v>       0.20405719       0.49122378       0.51137925 </v>
   <v>       0.16225541       0.52353827       0.50908093 </v>
   <v>       0.19840737       0.59391052       0.51290631 </v>
   <v>       0.22727364       0.74425318       0.45478434 </v>
   <v>       0.49826090       0.86189863       0.51033520 </v>
   <v>       0.50593044       0.08113833       0.50474333 </v>
   <v>       0.39656126       0.52785384       0.50931995 </v>
   <v>       0.43124629       0.49293183       0.50503627 </v>
   <v>       0.32241256       0.49549748       0.51162728 </v>
   <v>       0.50822948       0.19240444       0.51176751 </v>
   <v>       0.42786484       0.82763966       0.51344323 </v>
   <v>       0.50307521       0.63233270       0.50881296 </v>
   <v>       0.43268704       0.59825227       0.51205044 </v>
   <v>       0.28243035       0.47783958       0.45308093 </v>
   <v>       0.49101680       0.21513256       0.45323315 </v>
   <v>       0.54036290       0.73999670       0.57268378 </v>
   <v>       0.54976401       0.71515808       0.63850803 </v>
   <v>       0.53866601       0.04349415       0.50301676 </v>
   <v>       0.60913246       0.07950781       0.50440341 </v>
   <v>       0.53623129       0.59603583       0.50387674 </v>
   <v>       0.53771707       0.48738135       0.50334998 </v>
   <v>       0.60682875       0.41490787       0.51333198 </v>
   <v>       0.53645133       0.38070720       0.50981666 </v>
   <v>       0.53314630       0.93148180       0.50531308 </v>
   <v>       0.54068752       0.15072428       0.50945626 </v>
   <v>       0.60809686       0.52009256       0.50540188 </v>
   <v>       0.53552590       0.70644740       0.51178204 </v>
   <v>       0.53077506       0.82025594       0.51277815 </v>
   <v>       0.61105736       0.18513878       0.51272791 </v>
   <v>       0.54954004       0.79886122       0.45430820 </v>
   <v>       0.75295944       0.21993250       0.57340607 </v>
   <v>       0.72819382       0.18610116       0.63941210 </v>
   <v>       0.80719349       0.52805619       0.57209776 </v>
   <v>       0.84192953       0.53835709       0.63775336 </v>
   <v>       0.98248460       0.48847717       0.50297173 </v>
   <v>       0.94654745       0.52300505       0.50347566 </v>
   <v>       0.94474295       0.41809700       0.50538327 </v>
   <v>       0.87513829       0.38334913       0.51007206 </v>
   <v>       0.64287956       0.48530756       0.51022326 </v>
   <v>       0.71937100       0.19071395       0.51266041 </v>
   <v>       0.83338844       0.30919083       0.51295655 </v>
   <v>       0.83545648       0.52228052       0.51130461 </v>
   <v>       0.71705231       0.51783823       0.51231095 </v>
   <v>       0.84085925       0.41946386       0.51274381 </v>
   <v>       0.87711074       0.48982101       0.50876749 </v>
   <v>       0.64528044       0.14897205       0.50963265 </v>
   <v>       0.81188605       0.26849685       0.45482793 </v>
   <v>       0.75681977       0.53566632       0.45358907 </v>
   <v>       0.28814040       0.67267275       0.52218914 </v>
   <v>       0.15021154       0.47544624       0.63589055 </v>
   <v>       0.06690581       0.43580482       0.50111311 </v>
   <v>       0.41676396       0.73791052       0.52273312 </v>
   <v>       0.35405207       0.60945537       0.52084445 </v>
   <v>       0.35849732       0.87664170       0.63648230 </v>
   <v>       0.48780501       0.34407917       0.63640583 </v>
   <v>       0.40162279       0.95930551       0.50176559 </v>
   <v>       0.44876310       0.38839060       0.50206606 </v>
   <v>       0.06960702       0.62468628       0.50570840 </v>
   <v>       0.19881779       0.72877371       0.40813838 </v>
   <v>       0.45150516       0.05639156       0.50379555 </v>
   <v>       0.40146778       0.43849731       0.50464778 </v>
   <v>       0.29803266       0.46551294       0.40614039 </v>
   <v>       0.55007604       0.66699328       0.63583115 </v>
   <v>       0.59066562       0.62451229       0.50174893 </v>
   <v>       0.58757080       0.95616370       0.50453657 </v>
   <v>       0.56250113       0.82742007       0.40773005 </v>
   <v>       0.47905680       0.18750677       0.40612162 </v>
   <v>       0.75113233       0.34084831       0.52236807 </v>
   <v>       0.62201936       0.27491418       0.52160723 </v>
   <v>       0.68551667       0.40389972       0.52263746 </v>
   <v>       0.67995668       0.13765037       0.63696705 </v>
   <v>       0.89024024       0.53833724       0.63509393 </v>
   <v>       0.97247462       0.57741695       0.50075384 </v>
   <v>       0.63766754       0.05360946       0.50250258 </v>
   <v>       0.96945923       0.38838921       0.50512517 </v>
   <v>       0.63779590       0.57452460       0.50457027 </v>
   <v>       0.84043080       0.28355844       0.40822846 </v>
   <v>       0.74097518       0.54803574       0.40682195 </v>
   <v>       0.27988169       0.80717494       0.69154552 </v>
   <v>       0.21947679       0.46514671       0.69004928 </v>
   <v>       0.47797523       0.26470597       0.69058845 </v>
   <v>       0.38945624       0.75933358       0.51847814 </v>
   <v>       0.26675669       0.62398502       0.51735481 </v>
   <v>       0.40278639       0.63669869       0.51648062 </v>
   <v>       0.55738752       0.74458725       0.69130428 </v>
   <v>       0.75780443       0.20814667       0.69208179 </v>
   <v>       0.82067659       0.54702996       0.69039624 </v>
   <v>       0.63681028       0.37657505       0.51806114 </v>
   <v>       0.77254736       0.38955072       0.51767629 </v>
   <v>       0.64931929       0.25348081       0.51744518 </v>
  </varray>
 </structure>
</modeling>
