<?xml version="1.0" encoding="ISO-8859-1"?>
<modeling>
 <generator>
  <i name="program" type="string">vasp </i>
  <i name="version" type="string">5.4.4.18Apr17-6-g9f103f2a35  </i>
  <i name="subversion" type="string">(build Jun 07 2020 16:50:00) complex            parallel </i>
  <i name="platform" type="string">LinuxIFC </i>
  <i name="date" type="string">2023 02 18 </i>
  <i name="time" type="string">02:15:15 </i>
 </generator>
 <incar>
  <i type="string" name="SYSTEM">Simulation for cell shape cell volume r</i>
  <i type="int" name="ISTART">     1</i>
  <i type="string" name="PREC">high</i>
  <i type="string" name="ALGO">48</i>
  <i type="int" name="ICHARG">    11</i>
  <i type="int" name="NELM">   200</i>
  <i type="int" name="IBRION">    -1</i>
  <i name="EDIFF">      0.00001000</i>
  <i name="EDIFFG">     -0.01000000</i>
  <i type="int" name="NSW">     0</i>
  <i type="int" name="ISIF">     2</i>
  <i name="ENCUT">    500.00000000</i>
  <i name="POTIM">      0.30000000</i>
  <i type="string" name="LREAL">A</i>
  <i type="int" name="ISMEAR">     0</i>
  <i name="SIGMA">      0.01000000</i>
  <i type="int" name="NWRITE">     0</i>
  <i type="logical" name="LWAVE"> F  </i>
  <i type="logical" name="LCHARG"> F  </i>
  <v type="int" name="KPOINT_BSE">    -1     0     0     0</v>
  <i type="int" name="NELM">   200</i>
  <i type="string" name="GGA">PE</i>
 </incar>
 <structure name="primitive_cell" >
  <crystal>
   <varray name="basis" >
    <v>      23.12459742      -0.00067754       0.00000000 </v>
    <v>     -11.56287950      20.02364395       0.00000000 </v>
    <v>       0.00000000       0.00000000      20.00000000 </v>
   </varray>
   <i name="volume">   9260.61742024 </i>
   <varray name="rec_basis" >
    <v>       0.04324473       0.02497216       0.00000000 </v>
    <v>       0.00000146       0.04994180       0.00000000 </v>
    <v>       0.00000000       0.00000000       0.05000000 </v>
   </varray>
  </crystal>
  <varray name="positions" >
   <v>      -0.46930100       0.16136082      -0.49263287 </v>
   <v>       0.49688238       0.09189748      -0.49619171 </v>
   <v>      -0.39889069       0.19654985      -0.49048609 </v>
   <v>      -0.49979406       0.20449782      -0.48987782 </v>
   <v>       0.44251553       0.06632362      -0.49682388 </v>
   <v>      -0.36833367       0.26495718      -0.48662729 </v>
   <v>      -0.36362037       0.16164336      -0.49306878 </v>
   <v>      -0.46929905       0.05533793      -0.49781096 </v>
   <v>       0.49871788       0.23526386      -0.42939365 </v>
   <v>       0.48525100       0.22870544       0.45235922 </v>
   <v>      -0.39900202       0.09222063      -0.49703092 </v>
   <v>       0.47714918       0.20257776       0.40465899 </v>
   <v>       0.47502177       0.15313885      -0.36217786 </v>
   <v>      -0.49824036       0.20791655      -0.36240933 </v>
   <v>      -0.44584053       0.22488048      -0.34942345 </v>
   <v>      -0.31960497       0.28641165      -0.48447522 </v>
   <v>       0.49960375       0.29384856      -0.43064263 </v>
   <v>       0.48470199       0.28652198       0.45107185 </v>
   <v>      -0.28939112       0.20423813      -0.49054030 </v>
   <v>      -0.38801885       0.35013499      -0.48432824 </v>
   <v>       0.49380368      -0.01882264      -0.49761621 </v>
   <v>      -0.36987492       0.06704928      -0.49871102 </v>
   <v>       0.39429457      -0.03070530      -0.49829662 </v>
   <v>       0.49971491       0.31985708      -0.49072770 </v>
   <v>       0.48143952       0.22672759      -0.32408023 </v>
   <v>       0.42350968      -0.05578394      -0.49648206 </v>
   <v>      -0.26358233       0.23026412      -0.43042525 </v>
   <v>      -0.25581141       0.22230353       0.45136589 </v>
   <v>      -0.36072468       0.39886180      -0.48652746 </v>
   <v>      -0.47231097      -0.05531667      -0.49600726 </v>
   <v>      -0.41795550      -0.02970442      -0.49684236 </v>
   <v>      -0.23465213       0.39092502      -0.48670991 </v>
   <v>      -0.46875253       0.39408560      -0.49312647 </v>
   <v>      -0.20496114       0.28791742      -0.42913931 </v>
   <v>      -0.25613906       0.41818172      -0.48480955 </v>
   <v>      -0.19802021       0.28069625       0.45268864 </v>
   <v>      -0.39858175       0.42939621      -0.49049426 </v>
   <v>       0.38825135      -0.12519655      -0.49213208 </v>
   <v>      -0.17403333       0.32001482      -0.48962767 </v>
   <v>       0.49398466      -0.12475448      -0.49221839 </v>
   <v>      -0.17170951       0.29858270       0.40505906 </v>
   <v>      -0.19495489       0.35377026      -0.34936557 </v>
   <v>      -0.17779361       0.31844386      -0.36216161 </v>
   <v>      -0.19657982       0.27939183      -0.32374454 </v>
   <v>       0.42359446      -0.16002161      -0.48974041 </v>
   <v>       0.49716765       0.42942177      -0.49720575 </v>
   <v>      -0.16623845       0.42880632      -0.49055225 </v>
   <v>       0.31406208      -0.16788308      -0.48937299 </v>
   <v>       0.44287038       0.40026006      -0.49909207 </v>
   <v>      -0.13099793       0.39363333      -0.49249089 </v>
   <v>      -0.36337949       0.49980837      -0.49274209 </v>
   <v>      -0.32247249       0.47779231      -0.34915083 </v>
   <v>      -0.45003896      -0.11668859      -0.36174754 </v>
   <v>       0.28039615      -0.18559538       0.45259829 </v>
   <v>       0.28836853      -0.19423413      -0.42930082 </v>
   <v>      -0.28974579      -0.46969403      -0.49021112 </v>
   <v>      -0.12301872       0.34661892      -0.36181039 </v>
   <v>      -0.47548458      -0.16784286      -0.48965410 </v>
   <v>      -0.25714954      -0.46758274      -0.42977293 </v>
   <v>      -0.19947643      -0.46851927      -0.43104507 </v>
   <v>      -0.25101287      -0.45553551       0.45181090 </v>
   <v>      -0.13135937       0.49898491      -0.49326994 </v>
   <v>      -0.17404875      -0.46945965      -0.49115809 </v>
   <v>      -0.46943514       0.49972938      -0.49796358 </v>
   <v>      -0.28717340      -0.46992301      -0.36274550 </v>
   <v>       0.39308616      -0.22843974      -0.48593411 </v>
   <v>      -0.39905695      -0.46642502      -0.49632033 </v>
   <v>      -0.19277825      -0.45521328       0.45046105 </v>
   <v>       0.47051356      -0.18816650      -0.34948303 </v>
   <v>      -0.45268456      -0.16585381       0.40481448 </v>
   <v>      -0.47708162      -0.17147297      -0.36220926 </v>
   <v>      -0.26927734      -0.44788248       0.40404965 </v>
   <v>       0.34438663      -0.24983370      -0.48328394 </v>
   <v>      -0.06154437       0.42932342      -0.49590280 </v>
   <v>      -0.46075067      -0.19205309       0.45245928 </v>
   <v>      -0.47396679      -0.19868757      -0.42924105 </v>
   <v>      -0.31525999      -0.44323073      -0.36278728 </v>
   <v>      -0.24783037      -0.44912767      -0.32464034 </v>
   <v>       0.22252573      -0.24393037       0.45376042 </v>
   <v>       0.22958239      -0.25172868      -0.42814561 </v>
   <v>       0.39416004       0.44852660      -0.49625106 </v>
   <v>      -0.03597014       0.40054158      -0.49633557 </v>
   <v>      -0.37027501      -0.41206029      -0.49697335 </v>
   <v>      -0.45716713      -0.19065821      -0.32384668 </v>
   <v>      -0.06191961      -0.46691743      -0.49710256 </v>
   <v>       0.22105245      -0.24330644      -0.32282260 </v>
   <v>       0.49335571      -0.46332949      -0.49790286 </v>
   <v>       0.19614713      -0.26154028       0.40613319 </v>
   <v>       0.19849918      -0.28349495      -0.48871628 </v>
   <v>      -0.02499850       0.49970440      -0.49762209 </v>
   <v>       0.42298392      -0.49710283      -0.49587461 </v>
   <v>       0.20227008      -0.28236256      -0.36123044 </v>
   <v>      -0.46045320      -0.24998862       0.45099993 </v>
   <v>      -0.47491152      -0.25729939      -0.43061326 </v>
   <v>       0.41226458      -0.31344200      -0.48417194 </v>
   <v>      -0.03677187      -0.41261478      -0.49899357 </v>
   <v>       0.21931735      -0.31776275      -0.34837612 </v>
   <v>      -0.47536255      -0.28333114      -0.49080275 </v>
   <v>       0.25875190      -0.35461972      -0.48578369 </v>
   <v>      -0.47317743      -0.39302799      -0.49733395 </v>
   <v>       0.14749328      -0.31043682      -0.36097692 </v>
   <v>      -0.41888979      -0.36392427      -0.49940087 </v>
   <v>       0.06077813       0.44914265      -0.49820093 </v>
   <v>       0.34079508       0.48187947      -0.36154597 </v>
   <v>       0.15522416      -0.35710532      -0.49174803 </v>
   <v>       0.04916020      -0.46308391      -0.49736434 </v>
   <v>       0.38740107      -0.46323366      -0.49219654 </v>
   <v>       0.38494125      -0.36217778      -0.48626657 </v>
   <v>       0.28014109      -0.38194795      -0.48358011 </v>
   <v>       0.19034233      -0.39240291      -0.48957748 </v>
   <v>       0.08598599      -0.49655615      -0.49638119 </v>
   <v>       0.31379035      -0.49370931      -0.48908909 </v>
   <v>       0.29200885       0.48231275       0.40568657 </v>
   <v>       0.06023509      -0.36388296      -0.49624386 </v>
   <v>       0.49286660      -0.35758549      -0.49317843 </v>
   <v>       0.31251408      -0.49162699      -0.36162673 </v>
   <v>       0.08577203      -0.39270171      -0.49555275 </v>
   <v>       0.42269763      -0.39280426      -0.49027307 </v>
   <v>       0.27428730       0.49085414       0.45335523 </v>
   <v>       0.28182480      -0.49488690      -0.42849682 </v>
   <v>       0.27352908       0.48786587      -0.32316237 </v>
   <v>       0.34777326      -0.43915305      -0.34866097 </v>
   <v>       0.15538732      -0.46258083      -0.49215150 </v>
   <v>       0.21590424       0.49025476       0.45223232 </v>
   <v>       0.22412318      -0.49398056      -0.42957060 </v>
   <v>       0.19795980      -0.49422836      -0.48962061 </v>
  </varray>
 </structure>
 <varray name="primitive_index" >
  <v type="int" >        1 </v>
  <v type="int" >        2 </v>
  <v type="int" >       10 </v>
  <v type="int" >        4 </v>
  <v type="int" >       79 </v>
  <v type="int" >      121 </v>
  <v type="int" >        9 </v>
  <v type="int" >        7 </v>
  <v type="int" >        3 </v>
  <v type="int" >       11 </v>
  <v type="int" >        8 </v>
  <v type="int" >       85 </v>
  <v type="int" >       80 </v>
  <v type="int" >        5 </v>
  <v type="int" >       81 </v>
  <v type="int" >       86 </v>
  <v type="int" >       69 </v>
  <v type="int" >       70 </v>
  <v type="int" >        6 </v>
  <v type="int" >       87 </v>
  <v type="int" >       57 </v>
  <v type="int" >       84 </v>
  <v type="int" >      117 </v>
  <v type="int" >       14 </v>
  <v type="int" >       82 </v>
  <v type="int" >       60 </v>
  <v type="int" >       67 </v>
  <v type="int" >       68 </v>
  <v type="int" >      122 </v>
  <v type="int" >       45 </v>
  <v type="int" >      107 </v>
  <v type="int" >      123 </v>
  <v type="int" >       19 </v>
  <v type="int" >       15 </v>
  <v type="int" >       89 </v>
  <v type="int" >       22 </v>
  <v type="int" >       20 </v>
  <v type="int" >       59 </v>
  <v type="int" >       16 </v>
  <v type="int" >       46 </v>
  <v type="int" >       96 </v>
  <v type="int" >       92 </v>
  <v type="int" >       17 </v>
  <v type="int" >       83 </v>
  <v type="int" >       58 </v>
  <v type="int" >       18 </v>
  <v type="int" >       21 </v>
  <v type="int" >       55 </v>
  <v type="int" >       94 </v>
  <v type="int" >       12 </v>
  <v type="int" >       23 </v>
  <v type="int" >       99 </v>
  <v type="int" >      111 </v>
  <v type="int" >       78 </v>
  <v type="int" >       76 </v>
  <v type="int" >       28 </v>
  <v type="int" >       91 </v>
  <v type="int" >       50 </v>
  <v type="int" >       27 </v>
  <v type="int" >       71 </v>
  <v type="int" >       43 </v>
  <v type="int" >       39 </v>
  <v type="int" >       29 </v>
  <v type="int" >       35 </v>
  <v type="int" >       30 </v>
  <v type="int" >      124 </v>
  <v type="int" >       24 </v>
  <v type="int" >       73 </v>
  <v type="int" >      112 </v>
  <v type="int" >      119 </v>
  <v type="int" >       52 </v>
  <v type="int" >      104 </v>
  <v type="int" >      106 </v>
  <v type="int" >       13 </v>
  <v type="int" >       65 </v>
  <v type="int" >       49 </v>
  <v type="int" >       98 </v>
  <v type="int" >      100 </v>
  <v type="int" >       66 </v>
  <v type="int" >       53 </v>
  <v type="int" >       88 </v>
  <v type="int" >       90 </v>
  <v type="int" >       97 </v>
  <v type="int" >      113 </v>
  <v type="int" >       38 </v>
  <v type="int" >      116 </v>
  <v type="int" >       36 </v>
  <v type="int" >      120 </v>
  <v type="int" >       54 </v>
  <v type="int" >       37 </v>
  <v type="int" >       25 </v>
  <v type="int" >       56 </v>
  <v type="int" >       77 </v>
  <v type="int" >       75 </v>
  <v type="int" >      108 </v>
  <v type="int" >      103 </v>
  <v type="int" >      115 </v>
  <v type="int" >       51 </v>
  <v type="int" >      126 </v>
  <v type="int" >       63 </v>
  <v type="int" >      114 </v>
  <v type="int" >      118 </v>
  <v type="int" >       95 </v>
  <v type="int" >      101 </v>
  <v type="int" >       48 </v>
  <v type="int" >       40 </v>
  <v type="int" >       26 </v>
  <v type="int" >      125 </v>
  <v type="int" >      109 </v>
  <v type="int" >       64 </v>
  <v type="int" >       42 </v>
  <v type="int" >       32 </v>
  <v type="int" >      105 </v>
  <v type="int" >      110 </v>
  <v type="int" >       62 </v>
  <v type="int" >       34 </v>
  <v type="int" >       47 </v>
  <v type="int" >       61 </v>
  <v type="int" >       44 </v>
  <v type="int" >       31 </v>
  <v type="int" >       93 </v>
  <v type="int" >      102 </v>
  <v type="int" >       41 </v>
  <v type="int" >       74 </v>
  <v type="int" >       72 </v>
  <v type="int" >       33 </v>
 </varray>
 <kpoints>
  <generation param="listgenerated">
   <i name="divisions" type="int">      20 </i>
   <v>       0.00000000       0.00000000       0.00000000 </v>
   <v>       0.50000000       0.00000000       0.00000000 </v>
   <v>       0.33333333       0.33333333       0.00000000 </v>
   <v>       0.00000000       0.00000000       0.00000000 </v>
  </generation>
  <varray name="kpointlist" >
   <v>       0.00000000       0.00000000       0.00000000 </v>
   <v>       0.02631579       0.00000000       0.00000000 </v>
   <v>       0.05263158       0.00000000       0.00000000 </v>
   <v>       0.07894737       0.00000000       0.00000000 </v>
   <v>       0.10526316       0.00000000       0.00000000 </v>
   <v>       0.13157895       0.00000000       0.00000000 </v>
   <v>       0.15789474       0.00000000       0.00000000 </v>
   <v>       0.18421053       0.00000000       0.00000000 </v>
   <v>       0.21052632       0.00000000       0.00000000 </v>
   <v>       0.23684211       0.00000000       0.00000000 </v>
   <v>       0.26315789       0.00000000       0.00000000 </v>
   <v>       0.28947368       0.00000000       0.00000000 </v>
   <v>       0.31578947       0.00000000       0.00000000 </v>
   <v>       0.34210526       0.00000000       0.00000000 </v>
   <v>       0.36842105       0.00000000       0.00000000 </v>
   <v>       0.39473684       0.00000000       0.00000000 </v>
   <v>       0.42105263       0.00000000       0.00000000 </v>
   <v>       0.44736842       0.00000000       0.00000000 </v>
   <v>       0.47368421       0.00000000       0.00000000 </v>
   <v>       0.50000000       0.00000000       0.00000000 </v>
   <v>       0.50000000       0.00000000       0.00000000 </v>
   <v>       0.49122807       0.01754386       0.00000000 </v>
   <v>       0.48245614       0.03508772       0.00000000 </v>
   <v>       0.47368421       0.05263158       0.00000000 </v>
   <v>       0.46491228       0.07017544       0.00000000 </v>
   <v>       0.45614035       0.08771930       0.00000000 </v>
   <v>       0.44736842       0.10526316       0.00000000 </v>
   <v>       0.43859649       0.12280702       0.00000000 </v>
   <v>       0.42982456       0.14035088       0.00000000 </v>
   <v>       0.42105263       0.15789474       0.00000000 </v>
   <v>       0.41228070       0.17543860       0.00000000 </v>
   <v>       0.40350877       0.19298246       0.00000000 </v>
   <v>       0.39473684       0.21052632       0.00000000 </v>
   <v>       0.38596491       0.22807018       0.00000000 </v>
   <v>       0.37719298       0.24561404       0.00000000 </v>
   <v>       0.36842105       0.26315789       0.00000000 </v>
   <v>       0.35964912       0.28070175       0.00000000 </v>
   <v>       0.35087719       0.29824561       0.00000000 </v>
   <v>       0.34210526       0.31578947       0.00000000 </v>
   <v>       0.33333333       0.33333333       0.00000000 </v>
   <v>       0.33333333       0.33333333       0.00000000 </v>
   <v>       0.31578947       0.31578947       0.00000000 </v>
   <v>       0.29824561       0.29824561       0.00000000 </v>
   <v>       0.28070175       0.28070175       0.00000000 </v>
   <v>       0.26315789       0.26315789       0.00000000 </v>
   <v>       0.24561404       0.24561404       0.00000000 </v>
   <v>       0.22807018       0.22807018       0.00000000 </v>
   <v>       0.21052632       0.21052632       0.00000000 </v>
   <v>       0.19298246       0.19298246       0.00000000 </v>
   <v>       0.17543860       0.17543860       0.00000000 </v>
   <v>       0.15789474       0.15789474       0.00000000 </v>
   <v>       0.14035088       0.14035088       0.00000000 </v>
   <v>       0.12280702       0.12280702       0.00000000 </v>
   <v>       0.10526316       0.10526316       0.00000000 </v>
   <v>       0.08771930       0.08771930       0.00000000 </v>
   <v>       0.07017544       0.07017544       0.00000000 </v>
   <v>       0.05263158       0.05263158       0.00000000 </v>
   <v>       0.03508772       0.03508772       0.00000000 </v>
   <v>       0.01754386       0.01754386       0.00000000 </v>
   <v>       0.00000000       0.00000000       0.00000000 </v>
  </varray>
  <varray name="weights" >
   <v>       0.01666667 </v>
   <v>       0.01666667 </v>
   <v>       0.01666667 </v>
   <v>       0.01666667 </v>
   <v>       0.01666667 </v>
   <v>       0.01666667 </v>
   <v>       0.01666667 </v>
   <v>       0.01666667 </v>
   <v>       0.01666667 </v>
   <v>       0.01666667 </v>
   <v>       0.01666667 </v>
   <v>       0.01666667 </v>
   <v>       0.01666667 </v>
   <v>       0.01666667 </v>
   <v>       0.01666667 </v>
   <v>       0.01666667 </v>
   <v>       0.01666667 </v>
   <v>       0.01666667 </v>
   <v>       0.01666667 </v>
   <v>       0.01666667 </v>
   <v>       0.01666667 </v>
   <v>       0.01666667 </v>
   <v>       0.01666667 </v>
   <v>       0.01666667 </v>
   <v>       0.01666667 </v>
   <v>       0.01666667 </v>
   <v>       0.01666667 </v>
   <v>       0.01666667 </v>
   <v>       0.01666667 </v>
   <v>       0.01666667 </v>
   <v>       0.01666667 </v>
   <v>       0.01666667 </v>
   <v>       0.01666667 </v>
   <v>       0.01666667 </v>
   <v>       0.01666667 </v>
   <v>       0.01666667 </v>
   <v>       0.01666667 </v>
   <v>       0.01666667 </v>
   <v>       0.01666667 </v>
   <v>       0.01666667 </v>
   <v>       0.01666667 </v>
   <v>       0.01666667 </v>
   <v>       0.01666667 </v>
   <v>       0.01666667 </v>
   <v>       0.01666667 </v>
   <v>       0.01666667 </v>
   <v>       0.01666667 </v>
   <v>       0.01666667 </v>
   <v>       0.01666667 </v>
   <v>       0.01666667 </v>
   <v>       0.01666667 </v>
   <v>       0.01666667 </v>
   <v>       0.01666667 </v>
   <v>       0.01666667 </v>
   <v>       0.01666667 </v>
   <v>       0.01666667 </v>
   <v>       0.01666667 </v>
   <v>       0.01666667 </v>
   <v>       0.01666667 </v>
   <v>       0.01666667 </v>
  </varray>
 </kpoints>
 <parameters>
  <separator name="general" >
   <i type="string" name="SYSTEM">Simulation for cell shape cell volume r</i>
   <i type="logical" name="LCOMPAT"> F  </i>
  </separator>
  <separator name="electronic" >
   <i type="string" name="PREC">high</i>
   <i name="ENMAX">    500.00000000</i>
   <i name="ENAUG">    644.87300000</i>
   <i name="EDIFF">      0.00001000</i>
   <i type="int" name="IALGO">    38</i>
   <i type="int" name="IWAVPR">    10</i>
   <i type="int" name="NBANDS">   272</i>
   <i name="NELECT">    402.00000000</i>
   <i type="int" name="TURBO">     0</i>
   <i type="int" name="IRESTART">     0</i>
   <i type="int" name="NREBOOT">     0</i>
   <i type="int" name="NMIN">     0</i>
   <i name="EREF">      0.00000000</i>
   <separator name="electronic smearing" >
    <i type="int" name="ISMEAR">     0</i>
    <i name="SIGMA">      0.01000000</i>
    <i name="KSPACING">      0.50000000</i>
    <i type="logical" name="KGAMMA"> T  </i>
   </separator>
   <separator name="electronic projectors" >
    <i type="logical" name="LREAL"> T  </i>
    <v name="ROPT">     -0.00040000     -0.00040000     -0.00040000     -0.00040000</v>
    <i type="int" name="LMAXPAW">  -100</i>
    <i type="int" name="LMAXMIX">     2</i>
    <i type="logical" name="NLSPLINE"> F  </i>
   </separator>
   <separator name="electronic startup" >
    <i type="int" name="ISTART">     1</i>
    <i type="int" name="ICHARG">    11</i>
    <i type="int" name="INIWAV">     1</i>
   </separator>
   <separator name="electronic spin" >
    <i type="int" name="ISPIN">     1</i>
    <i type="logical" name="LNONCOLLINEAR"> F  </i>
    <v name="MAGMOM">      1.00000000      1.00000000      1.00000000      1.00000000      1.00000000      1.00000000      1.00000000      1.00000000      1.00000000      1.00000000      1.00000000      1.00000000      1.00000000      1.00000000      1.00000000      1.00000000      1.00000000      1.00000000      1.00000000      1.00000000
      1.00000000      1.00000000      1.00000000      1.00000000      1.00000000      1.00000000      1.00000000      1.00000000      1.00000000      1.00000000      1.00000000      1.00000000      1.00000000      1.00000000      1.00000000      1.00000000      1.00000000      1.00000000      1.00000000      1.00000000
      1.00000000      1.00000000      1.00000000      1.00000000      1.00000000      1.00000000      1.00000000      1.00000000      1.00000000      1.00000000      1.00000000      1.00000000      1.00000000      1.00000000      1.00000000      1.00000000      1.00000000      1.00000000      1.00000000      1.00000000
      1.00000000      1.00000000      1.00000000      1.00000000      1.00000000      1.00000000      1.00000000      1.00000000      1.00000000      1.00000000      1.00000000      1.00000000      1.00000000      1.00000000      1.00000000      1.00000000      1.00000000      1.00000000      1.00000000      1.00000000
      1.00000000      1.00000000      1.00000000      1.00000000      1.00000000      1.00000000      1.00000000      1.00000000      1.00000000      1.00000000      1.00000000      1.00000000      1.00000000      1.00000000      1.00000000      1.00000000      1.00000000      1.00000000      1.00000000      1.00000000
      1.00000000      1.00000000      1.00000000      1.00000000      1.00000000      1.00000000      1.00000000      1.00000000      1.00000000      1.00000000      1.00000000      1.00000000      1.00000000      1.00000000      1.00000000      1.00000000      1.00000000      1.00000000      1.00000000      1.00000000
      1.00000000      1.00000000      1.00000000      1.00000000      1.00000000      1.00000000</v>
    <i name="NUPDOWN">     -1.00000000</i>
    <i type="logical" name="LSORBIT"> F  </i>
    <v name="SAXIS">      0.00000000      0.00000000      1.00000000</v>
    <i type="logical" name="LSPIRAL"> F  </i>
    <v name="QSPIRAL">      0.00000000      0.00000000      0.00000000</v>
    <i type="logical" name="LZEROZ"> F  </i>
   </separator>
   <separator name="electronic exchange-correlation" >
    <i type="logical" name="LASPH"> F  </i>
    <i type="logical" name="LMETAGGA"> F  </i>
   </separator>
   <separator name="electronic convergence" >
    <i type="int" name="NELM">   200</i>
    <i type="int" name="NELMDL">     0</i>
    <i type="int" name="NELMIN">     2</i>
    <i name="ENINI">    500.00000000</i>
    <separator name="electronic convergence detail" >
     <i type="logical" name="LDIAG"> T  </i>
     <i type="logical" name="LSUBROT"> F  </i>
     <i name="WEIMIN">      0.00000000</i>
     <i name="EBREAK">      0.00000001</i>
     <i name="DEPER">      0.30000000</i>
     <i type="int" name="NRMM">     4</i>
     <i name="TIME">      0.40000000</i>
    </separator>
   </separator>
   <separator name="electronic mixer" >
    <i name="AMIX">      0.40000000</i>
    <i name="BMIX">      1.00000000</i>
    <i name="AMIN">      0.10000000</i>
    <i name="AMIX_MAG">      1.60000000</i>
    <i name="BMIX_MAG">      1.00000000</i>
    <separator name="electronic mixer details" >
     <i type="int" name="IMIX">     4</i>
     <i type="logical" name="MIXFIRST"> F  </i>
     <i type="int" name="MAXMIX">   -45</i>
     <i name="WC">    100.00000000</i>
     <i type="int" name="INIMIX">     1</i>
     <i type="int" name="MIXPRE">     1</i>
     <i type="int" name="MREMOVE">     5</i>
    </separator>
   </separator>
   <separator name="electronic dipolcorrection" >
    <i type="logical" name="LDIPOL"> F  </i>
    <i type="logical" name="LMONO"> F  </i>
    <i type="int" name="IDIPOL">     0</i>
    <i name="EPSILON">      1.00000000</i>
    <v name="DIPOL">   -100.00000000   -100.00000000   -100.00000000</v>
    <i name="EFIELD">      0.00000000</i>
   </separator>
  </separator>
  <separator name="grids" >
   <i type="int" name="NGX">   180</i>
   <i type="int" name="NGY">   180</i>
   <i type="int" name="NGZ">   150</i>
   <i type="int" name="NGXF">   256</i>
   <i type="int" name="NGYF">   256</i>
   <i type="int" name="NGZF">   224</i>
   <i type="logical" name="ADDGRID"> F  </i>
  </separator>
  <separator name="ionic" >
   <i type="int" name="NSW">     0</i>
   <i type="int" name="IBRION">    -1</i>
   <i type="int" name="MDALGO">     0</i>
   <i type="int" name="ISIF">     2</i>
   <i name="PSTRESS">      0.00000000</i>
   <i name="EDIFFG">     -0.01000000</i>
   <i type="int" name="NFREE">     0</i>
   <i name="POTIM">      0.30000000</i>
   <i name="SMASS">     -3.00000000</i>
   <i name="SCALEE">      1.00000000</i>
  </separator>
  <separator name="ionic md" >
   <i name="TEBEG">      0.00010000</i>
   <i name="TEEND">      0.00010000</i>
   <i type="int" name="NBLOCK">     1</i>
   <i type="int" name="KBLOCK">     1</i>
   <i type="int" name="NPACO">   256</i>
   <i name="APACO">     16.00000000</i>
  </separator>
  <separator name="symmetry" >
   <i type="int" name="ISYM">     2</i>
   <i name="SYMPREC">      0.00001000</i>
  </separator>
  <separator name="dos" >
   <i type="int" name="LORBIT">     0</i>
   <v name="RWIGS">     -1.00000000     -1.00000000     -1.00000000     -1.00000000</v>
   <i type="int" name="NEDOS">   301</i>
   <i name="EMIN">     10.00000000</i>
   <i name="EMAX">    -10.00000000</i>
   <i name="EFERMI">      0.00000000</i>
  </separator>
  <separator name="writing" >
   <i type="int" name="NWRITE">     0</i>
   <i type="logical" name="LWAVE"> F  </i>
   <i type="logical" name="LDOWNSAMPLE"> F  </i>
   <i type="logical" name="LCHARG"> F  </i>
   <i type="logical" name="LPARD"> F  </i>
   <i type="logical" name="LVTOT"> F  </i>
   <i type="logical" name="LVHAR"> F  </i>
   <i type="logical" name="LELF"> F  </i>
   <i type="logical" name="LOPTICS"> F  </i>
   <v name="STM">      0.00000000      0.00000000      0.00000000      0.00000000      0.00000000      0.00000000      0.00000000</v>
  </separator>
  <separator name="performance" >
   <i type="int" name="NPAR">    16</i>
   <i type="int" name="NSIM">     4</i>
   <i type="int" name="NBLK">    -1</i>
   <i type="logical" name="LPLANE"> T  </i>
   <i type="logical" name="LSCALAPACK"> T  </i>
   <i type="logical" name="LSCAAWARE"> F  </i>
   <i type="logical" name="LSCALU"> F  </i>
   <i type="logical" name="LASYNC"> F  </i>
   <i type="logical" name="LORBITALREAL"> F  </i>
  </separator>
  <separator name="miscellaneous" >
   <i type="int" name="IDIOT">     3</i>
   <i type="int" name="ISPECIAL">     0</i>
   <i type="logical" name="LMUSIC"> F  </i>
   <v name="POMASS">     12.01100000     14.00100000      1.00000000     16.00000000</v>
   <v name="DARWINR">      0.00000000      0.00000000      0.00000000      0.00000000</v>
   <v name="DARWINV">      1.00000000      1.00000000      1.00000000      1.00000000</v>
   <i type="logical" name="LCORR"> T  </i>
  </separator>
  <i type="logical" name="GGA_COMPAT"> T  </i>
  <i type="logical" name="LBERRY"> F  </i>
  <i type="int" name="ICORELEVEL">     0</i>
  <i type="logical" name="LDAU"> F  </i>
  <i type="int" name="I_CONSTRAINED_M">     0</i>
  <separator name="electronic exchange-correlation" >
   <i type="string" name="GGA">PE</i>
   <i type="int" name="VOSKOWN">     0</i>
   <i type="logical" name="LHFCALC"> F  </i>
   <i type="string" name="PRECFOCK"></i>
   <i type="logical" name="LSYMGRAD"> F  </i>
   <i type="logical" name="LHFONE"> F  </i>
   <i type="logical" name="LRHFCALC"> F  </i>
   <i type="logical" name="LTHOMAS"> F  </i>
   <i type="logical" name="LMODELHF"> F  </i>
   <i name="ENCUT4O">     -1.00000000</i>
   <i type="int" name="EXXOEP">     0</i>
   <i type="int" name="FOURORBIT">     0</i>
   <i name="AEXX">      0.00000000</i>
   <i name="HFALPHA">      0.00000000</i>
   <i name="MCALPHA">      0.00000000</i>
   <i name="ALDAX">      1.00000000</i>
   <i name="AGGAX">      1.00000000</i>
   <i name="ALDAC">      1.00000000</i>
   <i name="AGGAC">      1.00000000</i>
   <i type="int" name="NKREDX">     1</i>
   <i type="int" name="NKREDY">     1</i>
   <i type="int" name="NKREDZ">     1</i>
   <i type="logical" name="SHIFTRED"> F  </i>
   <i type="logical" name="ODDONLY"> F  </i>
   <i type="logical" name="EVENONLY"> F  </i>
   <i type="int" name="LMAXFOCK">     0</i>
   <i type="int" name="NMAXFOCKAE">     0</i>
   <i type="logical" name="LFOCKAEDFT"> F  </i>
   <i name="HFSCREEN">      0.00000000</i>
   <i name="HFSCREENC">      0.00000000</i>
   <i type="int" name="NBANDSGWLOW">     0</i>
  </separator>
  <separator name="vdW DFT" >
   <i type="logical" name="LUSE_VDW"> F  </i>
   <i name="Zab_VDW">     -0.84910000</i>
   <i name="PARAM1">      0.12340000</i>
   <i name="PARAM2">      1.00000000</i>
   <i name="PARAM3">      0.00000000</i>
  </separator>
  <separator name="model GW" >
   <i type="int" name="MODEL_GW">     0</i>
   <i name="MODEL_EPS0">     44.09817819</i>
   <i name="MODEL_ALPHA">      1.00000000</i>
  </separator>
  <separator name="linear response parameters" >
   <i type="logical" name="LEPSILON"> F  </i>
   <i type="logical" name="LRPA"> F  </i>
   <i type="logical" name="LNABLA"> F  </i>
   <i type="logical" name="LVEL"> F  </i>
   <i type="int" name="KINTER">     0</i>
   <i name="CSHIFT">      0.10000000</i>
   <i name="OMEGAMAX">     -1.00000000</i>
   <i name="DEG_THRESHOLD">      0.00200000</i>
   <i name="RTIME">     -0.10000000</i>
   <i name="WPLASMAI">      0.00000000</i>
   <v name="DFIELD">      0.00000000      0.00000000      0.00000000</v>
   <v name="WPLASMA">      0.00000000      0.00000000      0.00000000      0.00000000      0.00000000      0.00000000      0.00000000      0.00000000      0.00000000</v>
  </separator>
  <separator name="orbital magnetization" >
   <i type="logical" name="NUCIND"> F  </i>
   <v name="MAGPOS">      0.00000000      0.00000000      0.00000000</v>
   <i type="logical" name="LNICSALL"> T  </i>
   <i type="logical" name="ORBITALMAG"> F  </i>
   <i type="logical" name="LMAGBLOCH"> F  </i>
   <i type="logical" name="LCHIMAG"> F  </i>
   <i type="logical" name="LGAUGE"> T  </i>
   <i type="int" name="MAGATOM">     0</i>
   <v name="MAGDIPOL">      0.00000000      0.00000000      0.00000000</v>
   <v name="AVECCONST">      0.00000000      0.00000000      0.00000000</v>
  </separator>
  <separator name="response functions" >
   <i type="logical" name="LADDER"> F  </i>
   <i type="logical" name="LRPAFORCE"> F  </i>
   <i type="logical" name="LFXC"> F  </i>
   <i type="logical" name="LHARTREE"> T  </i>
   <i type="int" name="IBSE">     0</i>
   <v type="int" name="KPOINT">    -1     0     0     0</v>
   <i type="logical" name="LTCTE"> F  </i>
   <i type="logical" name="LTETE"> F  </i>
   <i type="logical" name="LTRIPLET"> F  </i>
   <i type="logical" name="LFXCEPS"> F  </i>
   <i type="logical" name="LFXHEG"> F  </i>
   <i type="int" name="NATURALO">     2</i>
   <i type="logical" name="L2ORDER"> F  </i>
   <i type="logical" name="LMP2LT"> F  </i>
   <i type="logical" name="LUSEW"> F  </i>
   <i name="ENCUTGW">     -2.00000000</i>
   <i name="ENCUTGWSOFT">     -2.00000000</i>
   <i name="ENCUTLF">     -1.00000000</i>
   <i type="int" name="LMAXMP2">    -1</i>
   <i name="SCISSOR">      0.00000000</i>
   <i type="int" name="NOMEGA">     0</i>
   <i type="int" name="NOMEGAR">     0</i>
   <i type="int" name="NBANDSGW">    -1</i>
   <i type="int" name="NBANDSO">    -1</i>
   <i type="int" name="NBANDSV">    -1</i>
   <i type="int" name="NELM">   200</i>
   <i type="int" name="NELMHF">     1</i>
   <i type="int" name="DIM">     3</i>
   <i type="int" name="ANTIRES">     0</i>
   <i name="OMEGAMAX">    -30.00000000</i>
   <i name="OMEGAMIN">    -30.00000000</i>
   <i name="OMEGATL">   -200.00000000</i>
   <i type="int" name="OMEGAGRID">   140</i>
   <i name="CSHIFT">     -0.10000000</i>
   <i type="logical" name="SELFENERGY"> F  </i>
   <i type="logical" name="LSPECTRAL"> F  </i>
   <i type="logical" name="LSPECTRALGW"> F  </i>
   <i type="logical" name="LSINGLES"> F  </i>
   <i type="logical" name="LFERMIGW"> F  </i>
   <i type="logical" name="ODDONLYGW"> F  </i>
   <i type="logical" name="EVENONLYGW"> F  </i>
   <i type="int" name="NKREDLFX">     1</i>
   <i type="int" name="NKREDLFY">     1</i>
   <i type="int" name="NKREDLFZ">     1</i>
   <i type="int" name="MAXMEM">  2800</i>
   <i type="int" name="TELESCOPE">     0</i>
   <i type="int" name="TAUPAR">     1</i>
   <i type="int" name="OMEGAPAR">    -1</i>
   <i name="LAMBDA">      1.00000000</i>
  </separator>
  <separator name="External order field" >
   <i name="OFIELD_KAPPA">      0.00000000</i>
   <v name="OFIELD_K">      0.00000000      0.00000000      0.00000000</v>
   <i name="OFIELD_Q6_NEAR">      0.00000000</i>
   <i name="OFIELD_Q6_FAR">      0.00000000</i>
   <i name="OFIELD_A">      0.00000000</i>
  </separator>
  <separator name="solvation model" >
   <i type="logical" name="LSOL"> F  </i>
  </separator>
 </parameters>
 <atominfo>
  <atoms>     126 </atoms>
  <types>       4 </types>
  <array name="atoms" >
   <dimension dim="1">ion</dimension>
   <field type="string">element</field>
   <field type="int">atomtype</field>
   <set>
    <rc><c>C </c><c>   1</c></rc>
    <rc><c>C </c><c>   1</c></rc>
    <rc><c>C </c><c>   1</c></rc>
    <rc><c>C </c><c>   1</c></rc>
    <rc><c>C </c><c>   1</c></rc>
    <rc><c>C </c><c>   1</c></rc>
    <rc><c>C </c><c>   1</c></rc>
    <rc><c>C </c><c>   1</c></rc>
    <rc><c>C </c><c>   1</c></rc>
    <rc><c>C </c><c>   1</c></rc>
    <rc><c>C </c><c>   1</c></rc>
    <rc><c>C </c><c>   1</c></rc>
    <rc><c>C </c><c>   1</c></rc>
    <rc><c>C </c><c>   1</c></rc>
    <rc><c>C </c><c>   1</c></rc>
    <rc><c>C </c><c>   1</c></rc>
    <rc><c>C </c><c>   1</c></rc>
    <rc><c>C </c><c>   1</c></rc>
    <rc><c>C </c><c>   1</c></rc>
    <rc><c>C </c><c>   1</c></rc>
    <rc><c>C </c><c>   1</c></rc>
    <rc><c>C </c><c>   1</c></rc>
    <rc><c>C </c><c>   1</c></rc>
    <rc><c>C </c><c>   1</c></rc>
    <rc><c>C </c><c>   1</c></rc>
    <rc><c>C </c><c>   1</c></rc>
    <rc><c>C </c><c>   1</c></rc>
    <rc><c>C </c><c>   1</c></rc>
    <rc><c>C </c><c>   1</c></rc>
    <rc><c>C </c><c>   1</c></rc>
    <rc><c>C </c><c>   1</c></rc>
    <rc><c>C </c><c>   1</c></rc>
    <rc><c>C </c><c>   1</c></rc>
    <rc><c>C </c><c>   1</c></rc>
    <rc><c>C </c><c>   1</c></rc>
    <rc><c>C </c><c>   1</c></rc>
    <rc><c>C </c><c>   1</c></rc>
    <rc><c>C </c><c>   1</c></rc>
    <rc><c>C </c><c>   1</c></rc>
    <rc><c>C </c><c>   1</c></rc>
    <rc><c>C </c><c>   1</c></rc>
    <rc><c>C </c><c>   1</c></rc>
    <rc><c>C </c><c>   1</c></rc>
    <rc><c>C </c><c>   1</c></rc>
    <rc><c>C </c><c>   1</c></rc>
    <rc><c>C </c><c>   1</c></rc>
    <rc><c>C </c><c>   1</c></rc>
    <rc><c>C </c><c>   1</c></rc>
    <rc><c>C </c><c>   1</c></rc>
    <rc><c>C </c><c>   1</c></rc>
    <rc><c>C </c><c>   1</c></rc>
    <rc><c>C </c><c>   1</c></rc>
    <rc><c>C </c><c>   1</c></rc>
    <rc><c>C </c><c>   1</c></rc>
    <rc><c>C </c><c>   1</c></rc>
    <rc><c>C </c><c>   1</c></rc>
    <rc><c>C </c><c>   1</c></rc>
    <rc><c>C </c><c>   1</c></rc>
    <rc><c>C </c><c>   1</c></rc>
    <rc><c>C </c><c>   1</c></rc>
    <rc><c>C </c><c>   1</c></rc>
    <rc><c>C </c><c>   1</c></rc>
    <rc><c>C </c><c>   1</c></rc>
    <rc><c>C </c><c>   1</c></rc>
    <rc><c>C </c><c>   1</c></rc>
    <rc><c>C </c><c>   1</c></rc>
    <rc><c>N </c><c>   2</c></rc>
    <rc><c>N </c><c>   2</c></rc>
    <rc><c>N </c><c>   2</c></rc>
    <rc><c>N </c><c>   2</c></rc>
    <rc><c>N </c><c>   2</c></rc>
    <rc><c>N </c><c>   2</c></rc>
    <rc><c>N </c><c>   2</c></rc>
    <rc><c>N </c><c>   2</c></rc>
    <rc><c>N </c><c>   2</c></rc>
    <rc><c>N </c><c>   2</c></rc>
    <rc><c>N </c><c>   2</c></rc>
    <rc><c>N </c><c>   2</c></rc>
    <rc><c>H </c><c>   3</c></rc>
    <rc><c>H </c><c>   3</c></rc>
    <rc><c>H </c><c>   3</c></rc>
    <rc><c>H </c><c>   3</c></rc>
    <rc><c>H </c><c>   3</c></rc>
    <rc><c>H </c><c>   3</c></rc>
    <rc><c>H </c><c>   3</c></rc>
    <rc><c>H </c><c>   3</c></rc>
    <rc><c>H </c><c>   3</c></rc>
    <rc><c>H </c><c>   3</c></rc>
    <rc><c>H </c><c>   3</c></rc>
    <rc><c>H </c><c>   3</c></rc>
    <rc><c>H </c><c>   3</c></rc>
    <rc><c>H </c><c>   3</c></rc>
    <rc><c>H </c><c>   3</c></rc>
    <rc><c>H </c><c>   3</c></rc>
    <rc><c>H </c><c>   3</c></rc>
    <rc><c>H </c><c>   3</c></rc>
    <rc><c>H </c><c>   3</c></rc>
    <rc><c>H </c><c>   3</c></rc>
    <rc><c>H </c><c>   3</c></rc>
    <rc><c>H </c><c>   3</c></rc>
    <rc><c>H </c><c>   3</c></rc>
    <rc><c>H </c><c>   3</c></rc>
    <rc><c>H </c><c>   3</c></rc>
    <rc><c>H </c><c>   3</c></rc>
    <rc><c>H </c><c>   3</c></rc>
    <rc><c>H </c><c>   3</c></rc>
    <rc><c>H </c><c>   3</c></rc>
    <rc><c>H </c><c>   3</c></rc>
    <rc><c>H </c><c>   3</c></rc>
    <rc><c>H </c><c>   3</c></rc>
    <rc><c>H </c><c>   3</c></rc>
    <rc><c>H </c><c>   3</c></rc>
    <rc><c>H </c><c>   3</c></rc>
    <rc><c>H </c><c>   3</c></rc>
    <rc><c>H </c><c>   3</c></rc>
    <rc><c>H </c><c>   3</c></rc>
    <rc><c>H </c><c>   3</c></rc>
    <rc><c>H </c><c>   3</c></rc>
    <rc><c>H </c><c>   3</c></rc>
    <rc><c>H </c><c>   3</c></rc>
    <rc><c>O </c><c>   4</c></rc>
    <rc><c>O </c><c>   4</c></rc>
    <rc><c>O </c><c>   4</c></rc>
    <rc><c>O </c><c>   4</c></rc>
    <rc><c>O </c><c>   4</c></rc>
    <rc><c>O </c><c>   4</c></rc>
   </set>
  </array>
  <array name="atomtypes" >
   <dimension dim="1">type</dimension>
   <field type="int">atomspertype</field>
   <field type="string">element</field>
   <field>mass</field>
   <field>valence</field>
   <field type="string">pseudopotential</field>
   <set>
    <rc><c>  66</c><c>C </c><c>     12.01100000</c><c>      4.00000000</c><c>  PAW_PBE C 08Apr2002                   </c></rc>
    <rc><c>  12</c><c>N </c><c>     14.00100000</c><c>      5.00000000</c><c>  PAW_PBE N 08Apr2002                   </c></rc>
    <rc><c>  42</c><c>H </c><c>      1.00000000</c><c>      1.00000000</c><c>  PAW_PBE H 15Jun2001                   </c></rc>
    <rc><c>   6</c><c>O </c><c>     16.00000000</c><c>      6.00000000</c><c>  PAW_PBE O 08Apr2002                   </c></rc>
   </set>
  </array>
 </atominfo>
 <structure name="initialpos" >
  <crystal>
   <varray name="basis" >
    <v>      23.12459742      -0.00067754       0.00000000 </v>
    <v>     -11.56287950      20.02364395       0.00000000 </v>
    <v>       0.00000000       0.00000000      20.00000000 </v>
   </varray>
   <i name="volume">   9260.61742024 </i>
   <varray name="rec_basis" >
    <v>       0.04324473       0.02497216       0.00000000 </v>
    <v>       0.00000146       0.04994180       0.00000000 </v>
    <v>       0.00000000       0.00000000       0.05000000 </v>
   </varray>
  </crystal>
  <varray name="positions" >
   <v>       0.53069900       0.16136082       0.50736713 </v>
   <v>       0.49688238       0.09189748       0.50380829 </v>
   <v>       0.49871788       0.23526386       0.57060635 </v>
   <v>       0.50020594       0.20449782       0.51012218 </v>
   <v>       0.50175964       0.20791655       0.63759067 </v>
   <v>       0.71060888       0.20423813       0.50945970 </v>
   <v>       0.53070095       0.05533793       0.50218904 </v>
   <v>       0.60099798       0.09222063       0.50296908 </v>
   <v>       0.63637963       0.16164336       0.50693122 </v>
   <v>       0.60110931       0.19654985       0.50951391 </v>
   <v>       0.48525100       0.22870544       0.45235922 </v>
   <v>       0.86900207       0.39363333       0.50750911 </v>
   <v>       0.93845563       0.42932342       0.50409720 </v>
   <v>       0.49971491       0.31985708       0.50927230 </v>
   <v>       0.79503886       0.28791742       0.57086069 </v>
   <v>       0.82596667       0.32001482       0.51037233 </v>
   <v>       0.82220639       0.31844386       0.63783839 </v>
   <v>       0.49716765       0.42942177       0.50279425 </v>
   <v>       0.53124747       0.39408560       0.50687353 </v>
   <v>       0.60141825       0.42939621       0.50950574 </v>
   <v>       0.83376155       0.42880632       0.50944775 </v>
   <v>       0.80197979       0.28069625       0.45268864 </v>
   <v>       0.63662051       0.49980837       0.50725791 </v>
   <v>       0.60094305       0.53357498       0.50367967 </v>
   <v>       0.42298392       0.50289717       0.50412539 </v>
   <v>       0.38740107       0.53676634       0.50780346 </v>
   <v>       0.74285046       0.53241726       0.57022707 </v>
   <v>       0.71025421       0.53030597       0.50978888 </v>
   <v>       0.82595125       0.53054035       0.50884191 </v>
   <v>       0.71282660       0.53007699       0.63725450 </v>
   <v>       0.28182480       0.50511310       0.57150318 </v>
   <v>       0.31379035       0.50629069       0.51091091 </v>
   <v>       0.19795980       0.50577164       0.51037939 </v>
   <v>       0.31251408       0.50837301       0.63837327 </v>
   <v>       0.53056486       0.49972938       0.50203642 </v>
   <v>       0.49335571       0.53667051       0.50209714 </v>
   <v>       0.97500150       0.49970440       0.50237791 </v>
   <v>       0.93808039       0.53308257       0.50289744 </v>
   <v>       0.86864063       0.49898491       0.50673006 </v>
   <v>       0.04916020       0.53691609       0.50263566 </v>
   <v>       0.15538732       0.53741917       0.50784850 </v>
   <v>       0.08598599       0.50344385       0.50361881 </v>
   <v>       0.74898713       0.54446449       0.45181090 </v>
   <v>       0.27428730       0.49085414       0.45335523 </v>
   <v>       0.52768903       0.94468333       0.50399274 </v>
   <v>       0.49398466       0.87524552       0.50778161 </v>
   <v>       0.08577203       0.60729829       0.50444725 </v>
   <v>       0.15522416       0.64289468       0.50825197 </v>
   <v>       0.52603321       0.80131243       0.57075895 </v>
   <v>       0.52451542       0.83215714       0.51034590 </v>
   <v>       0.52463745       0.71666886       0.50919725 </v>
   <v>       0.52291838       0.82852703       0.63779074 </v>
   <v>       0.22958239       0.74827132       0.57185439 </v>
   <v>       0.19849918       0.71650505       0.51128372 </v>
   <v>       0.31406208       0.83211692       0.51062701 </v>
   <v>       0.20227008       0.71763744       0.63876956 </v>
   <v>       0.49380368       0.98117736       0.50238379 </v>
   <v>       0.42359446       0.83997839       0.51025959 </v>
   <v>       0.38825135       0.87480345       0.50786792 </v>
   <v>       0.42350968       0.94421606       0.50351794 </v>
   <v>       0.42269763       0.60719574       0.50972693 </v>
   <v>       0.49286660       0.64241451       0.50682157 </v>
   <v>       0.52682257       0.60697201       0.50266605 </v>
   <v>       0.19034233       0.60759709       0.51042252 </v>
   <v>       0.53924933       0.80794691       0.45245928 </v>
   <v>       0.22252573       0.75606963       0.45376042 </v>
   <v>       0.73641767       0.23026412       0.56957475 </v>
   <v>       0.74418859       0.22230353       0.45136589 </v>
   <v>       0.49960375       0.29384856       0.56935737 </v>
   <v>       0.48470199       0.28652198       0.45107185 </v>
   <v>       0.80052357       0.53148073       0.56895493 </v>
   <v>       0.22412318       0.50601944       0.57042940 </v>
   <v>       0.80722175       0.54478672       0.45046105 </v>
   <v>       0.21590424       0.49025476       0.45223232 </v>
   <v>       0.52508848       0.74270061       0.56938674 </v>
   <v>       0.28836853       0.80576587       0.57069918 </v>
   <v>       0.53954680       0.75001138       0.45099993 </v>
   <v>       0.28039615       0.81440462       0.45259829 </v>
   <v>       0.44251553       0.06632362       0.50317612 </v>
   <v>       0.47502177       0.15313885       0.63782214 </v>
   <v>       0.55415947       0.22488048       0.65057655 </v>
   <v>       0.48143952       0.22672759       0.67591977 </v>
   <v>       0.80342018       0.27939183       0.67625546 </v>
   <v>       0.63012508       0.06704928       0.50128898 </v>
   <v>       0.47714918       0.20257776       0.40465899 </v>
   <v>       0.68039503       0.28641165       0.51552478 </v>
   <v>       0.61198115       0.35013499       0.51567176 </v>
   <v>       0.39416004       0.44852660       0.50374894 </v>
   <v>       0.74386094       0.41818172       0.51519045 </v>
   <v>       0.96402986       0.40054158       0.50366443 </v>
   <v>       0.87698128       0.34661892       0.63818961 </v>
   <v>       0.80504511       0.35377026       0.65063443 </v>
   <v>       0.27352908       0.48786587       0.67683763 </v>
   <v>       0.44287038       0.40026006       0.50090793 </v>
   <v>       0.06077813       0.44914265       0.50179907 </v>
   <v>       0.82829049       0.29858270       0.40505906 </v>
   <v>       0.62972499       0.58793971       0.50302665 </v>
   <v>       0.68474001       0.55676927       0.63721272 </v>
   <v>       0.67752751       0.47779231       0.65084917 </v>
   <v>       0.75216963       0.55087233       0.67535966 </v>
   <v>       0.34079508       0.48187947       0.63845403 </v>
   <v>       0.34777326       0.56084695       0.65133903 </v>
   <v>       0.96322813       0.58738522       0.50100643 </v>
   <v>       0.73072266       0.55211752       0.40404965 </v>
   <v>       0.29200885       0.48231275       0.40568657 </v>
   <v>       0.34438663       0.75016630       0.51671606 </v>
   <v>       0.58204450       0.97029558       0.50315764 </v>
   <v>       0.41226458       0.68655800       0.51582806 </v>
   <v>       0.28014109       0.61805205       0.51641989 </v>
   <v>       0.06023509       0.63611704       0.50375614 </v>
   <v>       0.54996104       0.88331141       0.63825246 </v>
   <v>       0.47051356       0.81183350       0.65051697 </v>
   <v>       0.54283287       0.80934179       0.67615332 </v>
   <v>       0.14749328       0.68956318       0.63902308 </v>
   <v>       0.21931735       0.68223725       0.65162388 </v>
   <v>       0.22105245       0.75669356       0.67717740 </v>
   <v>       0.39429457       0.96929470       0.50170338 </v>
   <v>       0.58111021       0.63607573       0.50059913 </v>
   <v>       0.54731544       0.83414619       0.40481448 </v>
   <v>       0.19614713       0.73845972       0.40613319 </v>
   <v>       0.63166633       0.26495718       0.51337271 </v>
   <v>       0.63927532       0.39886180       0.51347254 </v>
   <v>       0.76534787       0.39092502       0.51329009 </v>
   <v>       0.39308616       0.77156026       0.51406589 </v>
   <v>       0.38494125       0.63782222       0.51373343 </v>
   <v>       0.25875190       0.64538028       0.51421631 </v>
  </varray>
 </structure>
 <calculation>
  <scstep>
   <time name="dav">  449.50  454.74</time>
   <time name="total">  449.64  454.90</time>
   <energy>
    <i name="alphaZ">     80.53722536 </i>
    <i name="ewald">  54538.27491237 </i>
    <i name="hartreedc"> -67818.16397995 </i>
    <i name="XCdc">   1436.65332057 </i>
    <i name="pawpsdc">  36861.34671762 </i>
    <i name="pawaedc"> -36936.40395819 </i>
    <i name="eentropy">     -0.00000000 </i>
    <i name="bandstr">  -5050.51985150 </i>
    <i name="atom">  16004.78268634 </i>
    <i name="e_fr_energy">   -883.49292737 </i>
    <i name="e_wo_entrp">   -883.49292737 </i>
    <i name="e_0_energy">   -883.49292737 </i>
   </energy>
  </scstep>
  <scstep>
   <time name="dav">  508.05  513.42</time>
   <time name="total">  508.05  513.42</time>
   <energy>
    <i name="e_fr_energy">   -884.35689258 </i>
    <i name="e_wo_entrp">   -884.35689258 </i>
    <i name="e_0_energy">   -884.35689258 </i>
   </energy>
  </scstep>
  <scstep>
   <time name="dav">  542.49  548.27</time>
   <time name="total">  542.49  548.27</time>
   <energy>
    <i name="e_fr_energy">   -884.37958733 </i>
    <i name="e_wo_entrp">   -884.37958733 </i>
    <i name="e_0_energy">   -884.37958733 </i>
   </energy>
  </scstep>
  <scstep>
   <time name="dav">  501.81  507.17</time>
   <time name="total">  501.82  507.17</time>
   <energy>
    <i name="e_fr_energy">   -884.38015325 </i>
    <i name="e_wo_entrp">   -884.38015325 </i>
    <i name="e_0_energy">   -884.38015325 </i>
   </energy>
  </scstep>
  <scstep>
   <time name="dav">  491.19  496.63</time>
   <time name="total">  491.19  496.64</time>
   <energy>
    <i name="e_fr_energy">   -884.38018281 </i>
    <i name="e_wo_entrp">   -884.38018281 </i>
    <i name="e_0_energy">   -884.38018281 </i>
   </energy>
  </scstep>
  <scstep>
   <time name="dav">  400.96  405.62</time>
   <time name="total">  400.97  405.62</time>
   <energy>
    <i name="alphaZ">     80.53722536 </i>
    <i name="ewald">  54538.27491237 </i>
    <i name="hartreedc"> -67818.16397995 </i>
    <i name="XCdc">   1436.65332057 </i>
    <i name="pawpsdc">  36861.34671762 </i>
    <i name="pawaedc"> -36936.40395819 </i>
    <i name="eentropy">     -0.00000000 </i>
    <i name="bandstr">  -5051.40710823 </i>
    <i name="atom">  16004.78268634 </i>
    <i name="e_fr_energy">   -884.38018410 </i>
    <i name="e_wo_entrp">   -884.38018410 </i>
    <i name="e_0_energy">   -884.38018410 </i>
   </energy>
  </scstep>
  <structure>
   <crystal>
    <varray name="basis" >
     <v>      23.12459742      -0.00067754       0.00000000 </v>
     <v>     -11.56287950      20.02364395       0.00000000 </v>
     <v>       0.00000000       0.00000000      20.00000000 </v>
    </varray>
    <i name="volume">   9260.61742024 </i>
    <varray name="rec_basis" >
     <v>       0.04324473       0.02497216       0.00000000 </v>
     <v>       0.00000146       0.04994180       0.00000000 </v>
     <v>       0.00000000       0.00000000       0.05000000 </v>
    </varray>
   </crystal>
   <varray name="positions" >
    <v>       0.53069900       0.16136082       0.50736713 </v>
    <v>       0.49688238       0.09189748       0.50380829 </v>
    <v>       0.49871788       0.23526386       0.57060635 </v>
    <v>       0.50020594       0.20449782       0.51012218 </v>
    <v>       0.50175964       0.20791655       0.63759067 </v>
    <v>       0.71060888       0.20423813       0.50945970 </v>
    <v>       0.53070095       0.05533793       0.50218904 </v>
    <v>       0.60099798       0.09222063       0.50296908 </v>
    <v>       0.63637963       0.16164336       0.50693122 </v>
    <v>       0.60110931       0.19654985       0.50951391 </v>
    <v>       0.48525100       0.22870544       0.45235922 </v>
    <v>       0.86900207       0.39363333       0.50750911 </v>
    <v>       0.93845563       0.42932342       0.50409720 </v>
    <v>       0.49971491       0.31985708       0.50927230 </v>
    <v>       0.79503886       0.28791742       0.57086069 </v>
    <v>       0.82596667       0.32001482       0.51037233 </v>
    <v>       0.82220639       0.31844386       0.63783839 </v>
    <v>       0.49716765       0.42942177       0.50279425 </v>
    <v>       0.53124747       0.39408560       0.50687353 </v>
    <v>       0.60141825       0.42939621       0.50950574 </v>
    <v>       0.83376155       0.42880632       0.50944775 </v>
    <v>       0.80197979       0.28069625       0.45268864 </v>
    <v>       0.63662051       0.49980837       0.50725791 </v>
    <v>       0.60094305       0.53357498       0.50367967 </v>
    <v>       0.42298392       0.50289717       0.50412539 </v>
    <v>       0.38740107       0.53676634       0.50780346 </v>
    <v>       0.74285046       0.53241726       0.57022707 </v>
    <v>       0.71025421       0.53030597       0.50978888 </v>
    <v>       0.82595125       0.53054035       0.50884191 </v>
    <v>       0.71282660       0.53007699       0.63725450 </v>
    <v>       0.28182480       0.50511310       0.57150318 </v>
    <v>       0.31379035       0.50629069       0.51091091 </v>
    <v>       0.19795980       0.50577164       0.51037939 </v>
    <v>       0.31251408       0.50837301       0.63837327 </v>
    <v>       0.53056486       0.49972938       0.50203642 </v>
    <v>       0.49335571       0.53667051       0.50209714 </v>
    <v>       0.97500150       0.49970440       0.50237791 </v>
    <v>       0.93808039       0.53308257       0.50289744 </v>
    <v>       0.86864063       0.49898491       0.50673006 </v>
    <v>       0.04916020       0.53691609       0.50263566 </v>
    <v>       0.15538732       0.53741917       0.50784850 </v>
    <v>       0.08598599       0.50344385       0.50361881 </v>
    <v>       0.74898713       0.54446449       0.45181090 </v>
    <v>       0.27428730       0.49085414       0.45335523 </v>
    <v>       0.52768903       0.94468333       0.50399274 </v>
    <v>       0.49398466       0.87524552       0.50778161 </v>
    <v>       0.08577203       0.60729829       0.50444725 </v>
    <v>       0.15522416       0.64289468       0.50825197 </v>
    <v>       0.52603321       0.80131243       0.57075895 </v>
    <v>       0.52451542       0.83215714       0.51034590 </v>
    <v>       0.52463745       0.71666886       0.50919725 </v>
    <v>       0.52291838       0.82852703       0.63779074 </v>
    <v>       0.22958239       0.74827132       0.57185439 </v>
    <v>       0.19849918       0.71650505       0.51128372 </v>
    <v>       0.31406208       0.83211692       0.51062701 </v>
    <v>       0.20227008       0.71763744       0.63876956 </v>
    <v>       0.49380368       0.98117736       0.50238379 </v>
    <v>       0.42359446       0.83997839       0.51025959 </v>
    <v>       0.38825135       0.87480345       0.50786792 </v>
    <v>       0.42350968       0.94421606       0.50351794 </v>
    <v>       0.42269763       0.60719574       0.50972693 </v>
    <v>       0.49286660       0.64241451       0.50682157 </v>
    <v>       0.52682257       0.60697201       0.50266605 </v>
    <v>       0.19034233       0.60759709       0.51042252 </v>
    <v>       0.53924933       0.80794691       0.45245928 </v>
    <v>       0.22252573       0.75606963       0.45376042 </v>
    <v>       0.73641767       0.23026412       0.56957475 </v>
    <v>       0.74418859       0.22230353       0.45136589 </v>
    <v>       0.49960375       0.29384856       0.56935737 </v>
    <v>       0.48470199       0.28652198       0.45107185 </v>
    <v>       0.80052357       0.53148073       0.56895493 </v>
    <v>       0.22412318       0.50601944       0.57042940 </v>
    <v>       0.80722175       0.54478672       0.45046105 </v>
    <v>       0.21590424       0.49025476       0.45223232 </v>
    <v>       0.52508848       0.74270061       0.56938674 </v>
    <v>       0.28836853       0.80576587       0.57069918 </v>
    <v>       0.53954680       0.75001138       0.45099993 </v>
    <v>       0.28039615       0.81440462       0.45259829 </v>
    <v>       0.44251553       0.06632362       0.50317612 </v>
    <v>       0.47502177       0.15313885       0.63782214 </v>
    <v>       0.55415947       0.22488048       0.65057655 </v>
    <v>       0.48143952       0.22672759       0.67591977 </v>
    <v>       0.80342018       0.27939183       0.67625546 </v>
    <v>       0.63012508       0.06704928       0.50128898 </v>
    <v>       0.47714918       0.20257776       0.40465899 </v>
    <v>       0.68039503       0.28641165       0.51552478 </v>
    <v>       0.61198115       0.35013499       0.51567176 </v>
    <v>       0.39416004       0.44852660       0.50374894 </v>
    <v>       0.74386094       0.41818172       0.51519045 </v>
    <v>       0.96402986       0.40054158       0.50366443 </v>
    <v>       0.87698128       0.34661892       0.63818961 </v>
    <v>       0.80504511       0.35377026       0.65063443 </v>
    <v>       0.27352908       0.48786587       0.67683763 </v>
    <v>       0.44287038       0.40026006       0.50090793 </v>
    <v>       0.06077813       0.44914265       0.50179907 </v>
    <v>       0.82829049       0.29858270       0.40505906 </v>
    <v>       0.62972499       0.58793971       0.50302665 </v>
    <v>       0.68474001       0.55676927       0.63721272 </v>
    <v>       0.67752751       0.47779231       0.65084917 </v>
    <v>       0.75216963       0.55087233       0.67535966 </v>
    <v>       0.34079508       0.48187947       0.63845403 </v>
    <v>       0.34777326       0.56084695       0.65133903 </v>
    <v>       0.96322813       0.58738522       0.50100643 </v>
    <v>       0.73072266       0.55211752       0.40404965 </v>
    <v>       0.29200885       0.48231275       0.40568657 </v>
    <v>       0.34438663       0.75016630       0.51671606 </v>
    <v>       0.58204450       0.97029558       0.50315764 </v>
    <v>       0.41226458       0.68655800       0.51582806 </v>
    <v>       0.28014109       0.61805205       0.51641989 </v>
    <v>       0.06023509       0.63611704       0.50375614 </v>
    <v>       0.54996104       0.88331141       0.63825246 </v>
    <v>       0.47051356       0.81183350       0.65051697 </v>
    <v>       0.54283287       0.80934179       0.67615332 </v>
    <v>       0.14749328       0.68956318       0.63902308 </v>
    <v>       0.21931735       0.68223725       0.65162388 </v>
    <v>       0.22105245       0.75669356       0.67717740 </v>
    <v>       0.39429457       0.96929470       0.50170338 </v>
    <v>       0.58111021       0.63607573       0.50059913 </v>
    <v>       0.54731544       0.83414619       0.40481448 </v>
    <v>       0.19614713       0.73845972       0.40613319 </v>
    <v>       0.63166633       0.26495718       0.51337271 </v>
    <v>       0.63927532       0.39886180       0.51347254 </v>
    <v>       0.76534787       0.39092502       0.51329009 </v>
    <v>       0.39308616       0.77156026       0.51406589 </v>
    <v>       0.38494125       0.63782222       0.51373343 </v>
    <v>       0.25875190       0.64538028       0.51421631 </v>
   </varray>
  </structure>
  <varray name="forces" >
   <v>      -0.00399785       0.00171074      -0.00275837 </v>
   <v>      -0.00098614      -0.00111016      -0.00004383 </v>
   <v>       0.00111735      -0.00397177       0.00214725 </v>
   <v>      -0.00291528       0.00284888      -0.00400063 </v>
   <v>      -0.00171005       0.00077049      -0.00033406 </v>
   <v>       0.00429605       0.00181070      -0.00339976 </v>
   <v>      -0.00001663      -0.00149108       0.00163424 </v>
   <v>      -0.00200380       0.00041699       0.00055225 </v>
   <v>      -0.00055682       0.00322199      -0.00071850 </v>
   <v>      -0.00052016       0.00487661      -0.00179419 </v>
   <v>       0.00456459      -0.00033488      -0.00103709 </v>
   <v>       0.00076857       0.00444578       0.00108995 </v>
   <v>       0.00194750       0.00015230      -0.00124647 </v>
   <v>       0.00254515      -0.00303994      -0.00328314 </v>
   <v>       0.00143023       0.00142377       0.00216285 </v>
   <v>      -0.00165313      -0.00115177       0.00323350 </v>
   <v>      -0.00108243       0.00200518       0.00186523 </v>
   <v>      -0.00079942       0.00064048       0.00083249 </v>
   <v>      -0.00025945       0.00214170       0.00024467 </v>
   <v>       0.00168830      -0.00035945      -0.00036707 </v>
   <v>      -0.00167546       0.00043422      -0.00308696 </v>
   <v>       0.00157862      -0.00236308      -0.00328735 </v>
   <v>       0.00048135      -0.00266756       0.00008630 </v>
   <v>      -0.00074096      -0.00048633       0.00159873 </v>
   <v>       0.00257477       0.00042091      -0.00009277 </v>
   <v>       0.00315161       0.00129659       0.00018401 </v>
   <v>      -0.00268068      -0.00103278       0.00040583 </v>
   <v>      -0.00288149      -0.00182066       0.00040552 </v>
   <v>      -0.00270121       0.00021993       0.00114492 </v>
   <v>       0.00028231      -0.00160608       0.00286455 </v>
   <v>       0.00271069      -0.00131184       0.00237943 </v>
   <v>      -0.00331474      -0.00337525       0.00584354 </v>
   <v>       0.00356109      -0.00184032      -0.00378228 </v>
   <v>       0.00250359       0.00472548      -0.00092790 </v>
   <v>      -0.00124280      -0.00322635      -0.00168951 </v>
   <v>      -0.00004965      -0.00103689      -0.00099362 </v>
   <v>       0.00075750       0.00177248       0.00017864 </v>
   <v>      -0.00021308       0.00045210       0.00135940 </v>
   <v>      -0.00180208      -0.00293035      -0.00064682 </v>
   <v>       0.00278416       0.00131537       0.00121061 </v>
   <v>      -0.00335029       0.00368763       0.00198617 </v>
   <v>      -0.00219442      -0.00121932      -0.00019978 </v>
   <v>       0.00235005       0.00063927      -0.00266828 </v>
   <v>       0.00119696      -0.00004678      -0.00115617 </v>
   <v>       0.00149036       0.00078938       0.00162819 </v>
   <v>      -0.00048329      -0.00016553      -0.00260188 </v>
   <v>       0.00295474       0.00173087      -0.00094387 </v>
   <v>       0.00144425       0.00167610      -0.00233340 </v>
   <v>       0.00214293      -0.00179777      -0.00095390 </v>
   <v>       0.00183389       0.00306555       0.00002432 </v>
   <v>      -0.00270669      -0.00168122       0.00273807 </v>
   <v>       0.00111630      -0.00010215       0.00020481 </v>
   <v>      -0.00313151       0.00305018       0.00126201 </v>
   <v>      -0.00538569      -0.00397588       0.00285081 </v>
   <v>      -0.00458025       0.00042081       0.00103318 </v>
   <v>       0.00227219      -0.00078779      -0.00416087 </v>
   <v>      -0.00150545      -0.00078999       0.00039714 </v>
   <v>      -0.00193173      -0.00381489      -0.00231945 </v>
   <v>       0.00102847      -0.00055520       0.00095482 </v>
   <v>       0.00104083       0.00113004       0.00036898 </v>
   <v>       0.00240814      -0.00005329       0.00095225 </v>
   <v>      -0.00167777      -0.00146767      -0.00176493 </v>
   <v>       0.00199178       0.00043294       0.00108117 </v>
   <v>       0.00228147       0.00281564      -0.00127244 </v>
   <v>      -0.00234993       0.00125219      -0.00144246 </v>
   <v>       0.00008541      -0.00070902       0.00532286 </v>
   <v>       0.00333623      -0.00630585      -0.00388854 </v>
   <v>       0.00158954      -0.00016739       0.00339189 </v>
   <v>      -0.00125580       0.00419890      -0.00141506 </v>
   <v>      -0.00458230      -0.00039207       0.00586161 </v>
   <v>       0.00172846      -0.00020750       0.00170023 </v>
   <v>      -0.00086131       0.00175504       0.00124078 </v>
   <v>      -0.00105237       0.00209790       0.00015330 </v>
   <v>      -0.00280154       0.00014287       0.00187023 </v>
   <v>      -0.00313251      -0.00571956      -0.00169379 </v>
   <v>       0.00327947       0.00142457      -0.00086407 </v>
   <v>       0.00159676       0.00009298       0.00031546 </v>
   <v>      -0.00629211      -0.00316331       0.00245803 </v>
   <v>       0.00178046      -0.00029525      -0.00040084 </v>
   <v>      -0.00173681      -0.00293790       0.00109932 </v>
   <v>       0.00490350       0.00139323      -0.00086273 </v>
   <v>       0.00123529       0.00031269      -0.00010621 </v>
   <v>      -0.00199283       0.00044922      -0.00244262 </v>
   <v>       0.00217746      -0.00002327      -0.00142605 </v>
   <v>      -0.00204085      -0.00103071       0.00294967 </v>
   <v>      -0.00111237      -0.00011496       0.00102960 </v>
   <v>      -0.00018608       0.00022408      -0.00032798 </v>
   <v>      -0.00003664       0.00085417      -0.00020339 </v>
   <v>       0.00256066       0.00021119      -0.00079920 </v>
   <v>       0.00167432      -0.00021125      -0.00060302 </v>
   <v>      -0.00194032       0.00037419       0.00019221 </v>
   <v>      -0.00055209       0.00297847       0.00055039 </v>
   <v>      -0.00436315       0.00165608       0.00042391 </v>
   <v>      -0.00090929       0.00120022       0.00098535 </v>
   <v>       0.00000148      -0.00160936      -0.00168078 </v>
   <v>       0.00216117      -0.00082510       0.00165690 </v>
   <v>       0.00082025      -0.00061802      -0.00036781 </v>
   <v>       0.00279651      -0.00245728       0.00080936 </v>
   <v>      -0.00021471       0.00258098      -0.00206010 </v>
   <v>       0.00046233      -0.00231781      -0.00167205 </v>
   <v>      -0.00224675       0.00234140      -0.00192084 </v>
   <v>      -0.00121578      -0.00122773      -0.00309198 </v>
   <v>      -0.00000073      -0.00012156       0.00015409 </v>
   <v>      -0.00023952      -0.00206050       0.00110334 </v>
   <v>      -0.00107853      -0.00074555      -0.00247394 </v>
   <v>      -0.00022870      -0.00006584      -0.00012994 </v>
   <v>       0.00127942      -0.00009950      -0.00274443 </v>
   <v>       0.00003697      -0.00008244      -0.00026399 </v>
   <v>       0.00029949      -0.00061689       0.00017000 </v>
   <v>      -0.00048505       0.00016379       0.00145477 </v>
   <v>      -0.00017880       0.00006053       0.00035490 </v>
   <v>      -0.00390179       0.00068491       0.00071041 </v>
   <v>      -0.00193031      -0.00143834      -0.00055024 </v>
   <v>       0.00061454      -0.00004721      -0.00115398 </v>
   <v>       0.00340017      -0.00283572      -0.00031530 </v>
   <v>       0.00172461      -0.00039481       0.00367079 </v>
   <v>       0.00064797       0.00148046       0.00454477 </v>
   <v>       0.00097544       0.00006931      -0.00036344 </v>
   <v>       0.00199615       0.00128746      -0.00145999 </v>
   <v>      -0.00043392      -0.00012252      -0.00178836 </v>
   <v>       0.00010727      -0.00226088       0.00079294 </v>
   <v>      -0.00053166       0.00197358       0.00123778 </v>
   <v>       0.00084804       0.00199628      -0.00058688 </v>
   <v>       0.00329596       0.00239662       0.00209439 </v>
   <v>      -0.00163488       0.00108174      -0.00110926 </v>
   <v>       0.00055870      -0.00043706      -0.00113050 </v>
  </varray>
  <varray name="stress" >
   <v>      -0.02793694      -0.00690144       0.00264668 </v>
   <v>      -0.00690145      -0.02243746       0.00911835 </v>
   <v>       0.00264668       0.00911835      -0.30287620 </v>
  </varray>
  <energy>
   <i name="e_fr_energy">   -887.72466877 </i>
   <i name="e_wo_entrp">   -887.72466877 </i>
   <i name="e_0_energy">     -0.00000000 </i>
  </energy>
  <time name="totalsc"> 3414.72 3454.28</time>
  <eigenvalues>
   <array>
    <dimension dim="1">band</dimension>
    <dimension dim="2">kpoint</dimension>
    <dimension dim="3">spin</dimension>
    <field>eigene</field>
    <field>occ</field>
    <set>
     <set comment="spin 1">
      <set comment="kpoint 1">
       <r>  -26.3972    1.0000 </r>
       <r>  -26.3959    1.0000 </r>
       <r>  -26.2596    1.0000 </r>
       <r>  -26.2584    1.0000 </r>
       <r>  -26.2562    1.0000 </r>
       <r>  -26.2552    1.0000 </r>
       <r>  -24.3105    1.0000 </r>
       <r>  -24.3100    1.0000 </r>
       <r>  -24.3095    1.0000 </r>
       <r>  -24.3089    1.0000 </r>
       <r>  -24.2910    1.0000 </r>
       <r>  -24.2903    1.0000 </r>
       <r>  -21.7640    1.0000 </r>
       <r>  -21.7633    1.0000 </r>
       <r>  -21.7632    1.0000 </r>
       <r>  -21.7622    1.0000 </r>
       <r>  -21.7616    1.0000 </r>
       <r>  -21.7609    1.0000 </r>
       <r>  -21.3730    1.0000 </r>
       <r>  -21.3723    1.0000 </r>
       <r>  -21.2747    1.0000 </r>
       <r>  -21.0408    1.0000 </r>
       <r>  -21.0399    1.0000 </r>
       <r>  -20.8381    1.0000 </r>
       <r>  -20.2727    1.0000 </r>
       <r>  -20.2501    1.0000 </r>
       <r>  -19.9873    1.0000 </r>
       <r>  -19.9870    1.0000 </r>
       <r>  -19.6592    1.0000 </r>
       <r>  -19.6589    1.0000 </r>
       <r>  -19.0434    1.0000 </r>
       <r>  -18.8887    1.0000 </r>
       <r>  -18.8886    1.0000 </r>
       <r>  -18.5618    1.0000 </r>
       <r>  -18.5612    1.0000 </r>
       <r>  -18.1814    1.0000 </r>
       <r>  -18.1803    1.0000 </r>
       <r>  -18.0019    1.0000 </r>
       <r>  -17.8789    1.0000 </r>
       <r>  -17.6769    1.0000 </r>
       <r>  -17.6157    1.0000 </r>
       <r>  -17.6150    1.0000 </r>
       <r>  -17.4283    1.0000 </r>
       <r>  -17.4272    1.0000 </r>
       <r>  -17.3387    1.0000 </r>
       <r>  -17.2004    1.0000 </r>
       <r>  -17.1914    1.0000 </r>
       <r>  -17.1895    1.0000 </r>
       <r>  -16.3178    1.0000 </r>
       <r>  -16.3170    1.0000 </r>
       <r>  -16.0343    1.0000 </r>
       <r>  -16.0331    1.0000 </r>
       <r>  -15.9209    1.0000 </r>
       <r>  -15.9197    1.0000 </r>
       <r>  -15.4490    1.0000 </r>
       <r>  -15.3909    1.0000 </r>
       <r>  -15.2935    1.0000 </r>
       <r>  -15.2913    1.0000 </r>
       <r>  -15.1291    1.0000 </r>
       <r>  -15.1282    1.0000 </r>
       <r>  -15.0341    1.0000 </r>
       <r>  -15.0326    1.0000 </r>
       <r>  -15.0002    1.0000 </r>
       <r>  -14.7741    1.0000 </r>
       <r>  -14.4426    1.0000 </r>
       <r>  -14.4416    1.0000 </r>
       <r>  -14.4139    1.0000 </r>
       <r>  -14.0824    1.0000 </r>
       <r>  -14.0812    1.0000 </r>
       <r>  -14.0330    1.0000 </r>
       <r>  -13.9441    1.0000 </r>
       <r>  -13.9432    1.0000 </r>
       <r>  -13.3080    1.0000 </r>
       <r>  -13.1792    1.0000 </r>
       <r>  -13.1783    1.0000 </r>
       <r>  -13.1611    1.0000 </r>
       <r>  -13.1604    1.0000 </r>
       <r>  -13.1452    1.0000 </r>
       <r>  -12.6384    1.0000 </r>
       <r>  -12.5495    1.0000 </r>
       <r>  -12.5491    1.0000 </r>
       <r>  -12.5210    1.0000 </r>
       <r>  -12.5075    1.0000 </r>
       <r>  -12.5070    1.0000 </r>
       <r>  -12.3918    1.0000 </r>
       <r>  -12.3812    1.0000 </r>
       <r>  -12.3800    1.0000 </r>
       <r>  -11.9728    1.0000 </r>
       <r>  -11.9720    1.0000 </r>
       <r>  -11.9582    1.0000 </r>
       <r>  -11.7359    1.0000 </r>
       <r>  -11.6718    1.0000 </r>
       <r>  -11.6710    1.0000 </r>
       <r>  -11.5997    1.0000 </r>
       <r>  -11.5991    1.0000 </r>
       <r>  -11.3879    1.0000 </r>
       <r>  -10.9019    1.0000 </r>
       <r>  -10.9015    1.0000 </r>
       <r>  -10.8436    1.0000 </r>
       <r>  -10.8081    1.0000 </r>
       <r>  -10.8075    1.0000 </r>
       <r>  -10.7454    1.0000 </r>
       <r>  -10.5983    1.0000 </r>
       <r>  -10.5980    1.0000 </r>
       <r>  -10.5753    1.0000 </r>
       <r>  -10.3766    1.0000 </r>
       <r>  -10.3025    1.0000 </r>
       <r>  -10.3018    1.0000 </r>
       <r>  -10.1757    1.0000 </r>
       <r>  -10.1754    1.0000 </r>
       <r>  -10.1582    1.0000 </r>
       <r>   -9.9761    1.0000 </r>
       <r>   -9.9741    1.0000 </r>
       <r>   -9.9627    1.0000 </r>
       <r>   -9.9607    1.0000 </r>
       <r>   -9.8982    1.0000 </r>
       <r>   -9.8799    1.0000 </r>
       <r>   -9.8417    1.0000 </r>
       <r>   -9.8415    1.0000 </r>
       <r>   -9.7850    1.0000 </r>
       <r>   -9.7338    1.0000 </r>
       <r>   -9.6204    1.0000 </r>
       <r>   -9.5956    1.0000 </r>
       <r>   -9.5934    1.0000 </r>
       <r>   -9.5849    1.0000 </r>
       <r>   -9.5828    1.0000 </r>
       <r>   -9.4059    1.0000 </r>
       <r>   -9.3656    1.0000 </r>
       <r>   -9.3641    1.0000 </r>
       <r>   -9.3561    1.0000 </r>
       <r>   -9.3546    1.0000 </r>
       <r>   -9.3432    1.0000 </r>
       <r>   -9.2536    1.0000 </r>
       <r>   -9.2320    1.0000 </r>
       <r>   -9.1905    1.0000 </r>
       <r>   -9.1884    1.0000 </r>
       <r>   -9.1810    1.0000 </r>
       <r>   -9.1798    1.0000 </r>
       <r>   -9.1141    1.0000 </r>
       <r>   -9.1124    1.0000 </r>
       <r>   -8.9729    1.0000 </r>
       <r>   -8.9559    1.0000 </r>
       <r>   -8.9557    1.0000 </r>
       <r>   -8.9182    1.0000 </r>
       <r>   -8.8397    1.0000 </r>
       <r>   -8.8363    1.0000 </r>
       <r>   -8.8360    1.0000 </r>
       <r>   -8.7677    1.0000 </r>
       <r>   -8.7666    1.0000 </r>
       <r>   -8.7005    1.0000 </r>
       <r>   -8.5598    1.0000 </r>
       <r>   -8.5086    1.0000 </r>
       <r>   -8.5080    1.0000 </r>
       <r>   -8.3849    1.0000 </r>
       <r>   -8.3843    1.0000 </r>
       <r>   -8.2983    1.0000 </r>
       <r>   -8.2970    1.0000 </r>
       <r>   -8.2625    1.0000 </r>
       <r>   -8.0123    1.0000 </r>
       <r>   -7.7656    1.0000 </r>
       <r>   -7.7648    1.0000 </r>
       <r>   -7.5960    1.0000 </r>
       <r>   -7.5164    1.0000 </r>
       <r>   -7.5150    1.0000 </r>
       <r>   -7.4652    1.0000 </r>
       <r>   -7.2313    1.0000 </r>
       <r>   -7.2302    1.0000 </r>
       <r>   -7.2274    1.0000 </r>
       <r>   -7.2264    1.0000 </r>
       <r>   -7.2007    1.0000 </r>
       <r>   -7.1955    1.0000 </r>
       <r>   -6.8452    1.0000 </r>
       <r>   -6.7661    1.0000 </r>
       <r>   -6.6611    1.0000 </r>
       <r>   -6.6597    1.0000 </r>
       <r>   -6.5472    1.0000 </r>
       <r>   -6.5457    1.0000 </r>
       <r>   -6.3061    1.0000 </r>
       <r>   -6.2638    1.0000 </r>
       <r>   -6.2622    1.0000 </r>
       <r>   -6.2350    1.0000 </r>
       <r>   -6.2141    1.0000 </r>
       <r>   -6.2092    1.0000 </r>
       <r>   -6.0886    1.0000 </r>
       <r>   -6.0853    1.0000 </r>
       <r>   -6.0357    1.0000 </r>
       <r>   -6.0349    1.0000 </r>
       <r>   -5.9752    1.0000 </r>
       <r>   -5.8936    1.0000 </r>
       <r>   -5.7856    1.0000 </r>
       <r>   -5.7473    1.0000 </r>
       <r>   -5.7425    1.0000 </r>
       <r>   -5.3603    1.0000 </r>
       <r>   -5.2572    1.0000 </r>
       <r>   -5.2554    1.0000 </r>
       <r>   -5.2121    1.0000 </r>
       <r>   -5.1488    1.0000 </r>
       <r>   -5.1475    1.0000 </r>
       <r>   -4.5493    1.0000 </r>
       <r>   -4.5065    1.0000 </r>
       <r>   -4.5056    1.0000 </r>
       <r>   -1.9527    0.0000 </r>
       <r>   -1.8339    0.0000 </r>
       <r>   -1.8079    0.0000 </r>
       <r>   -1.8018    0.0000 </r>
       <r>   -1.7258    0.0000 </r>
       <r>   -1.7238    0.0000 </r>
       <r>   -1.6820    0.0000 </r>
       <r>   -1.6806    0.0000 </r>
       <r>   -1.4861    0.0000 </r>
       <r>   -1.4830    0.0000 </r>
       <r>   -1.4673    0.0000 </r>
       <r>   -1.4649    0.0000 </r>
       <r>   -1.3237    0.0000 </r>
       <r>   -1.2990    0.0000 </r>
       <r>   -1.2975    0.0000 </r>
       <r>   -0.9683    0.0000 </r>
       <r>   -0.9641    0.0000 </r>
       <r>   -0.8454    0.0000 </r>
       <r>   -0.4411    0.0000 </r>
       <r>   -0.4381    0.0000 </r>
       <r>   -0.3825    0.0000 </r>
       <r>   -0.1435    0.0000 </r>
       <r>    0.0557    0.0000 </r>
       <r>    0.2086    0.0000 </r>
       <r>    0.2090    0.0000 </r>
       <r>    0.2816    0.0000 </r>
       <r>    0.2819    0.0000 </r>
       <r>    0.3538    0.0000 </r>
       <r>    0.3556    0.0000 </r>
       <r>    0.3610    0.0000 </r>
       <r>    0.4168    0.0000 </r>
       <r>    0.4776    0.0000 </r>
       <r>    0.6127    0.0000 </r>
       <r>    0.6937    0.0000 </r>
       <r>    0.6957    0.0000 </r>
       <r>    0.7409    0.0000 </r>
       <r>    0.7440    0.0000 </r>
       <r>    0.8017    0.0000 </r>
       <r>    0.8040    0.0000 </r>
       <r>    0.9474    0.0000 </r>
       <r>    0.9489    0.0000 </r>
       <r>    0.9579    0.0000 </r>
       <r>    1.0311    0.0000 </r>
       <r>    1.0403    0.0000 </r>
       <r>    1.0407    0.0000 </r>
       <r>    1.0742    0.0000 </r>
       <r>    1.0765    0.0000 </r>
       <r>    1.0768    0.0000 </r>
       <r>    1.2351    0.0000 </r>
       <r>    1.2378    0.0000 </r>
       <r>    1.2580    0.0000 </r>
       <r>    1.2777    0.0000 </r>
       <r>    1.2812    0.0000 </r>
       <r>    1.2870    0.0000 </r>
       <r>    1.3234    0.0000 </r>
       <r>    1.3247    0.0000 </r>
       <r>    1.3866    0.0000 </r>
       <r>    1.3921    0.0000 </r>
       <r>    1.3936    0.0000 </r>
       <r>    1.4007    0.0000 </r>
       <r>    1.4712    0.0000 </r>
       <r>    1.5792    0.0000 </r>
       <r>    1.5968    0.0000 </r>
       <r>    1.5975    0.0000 </r>
       <r>    1.5986    0.0000 </r>
       <r>    1.6000    0.0000 </r>
       <r>    1.6340    0.0000 </r>
       <r>    1.6612    0.0000 </r>
       <r>    1.7069    0.0000 </r>
       <r>    1.7106    0.0000 </r>
       <r>    1.7854    0.0000 </r>
      </set>
      <set comment="kpoint 2">
       <r>  -26.3972    1.0000 </r>
       <r>  -26.3959    1.0000 </r>
       <r>  -26.2596    1.0000 </r>
       <r>  -26.2584    1.0000 </r>
       <r>  -26.2562    1.0000 </r>
       <r>  -26.2552    1.0000 </r>
       <r>  -24.3105    1.0000 </r>
       <r>  -24.3100    1.0000 </r>
       <r>  -24.3095    1.0000 </r>
       <r>  -24.3089    1.0000 </r>
       <r>  -24.2910    1.0000 </r>
       <r>  -24.2903    1.0000 </r>
       <r>  -21.7640    1.0000 </r>
       <r>  -21.7633    1.0000 </r>
       <r>  -21.7632    1.0000 </r>
       <r>  -21.7622    1.0000 </r>
       <r>  -21.7616    1.0000 </r>
       <r>  -21.7609    1.0000 </r>
       <r>  -21.3730    1.0000 </r>
       <r>  -21.3722    1.0000 </r>
       <r>  -21.2749    1.0000 </r>
       <r>  -21.0406    1.0000 </r>
       <r>  -21.0397    1.0000 </r>
       <r>  -20.8383    1.0000 </r>
       <r>  -20.2727    1.0000 </r>
       <r>  -20.2502    1.0000 </r>
       <r>  -19.9871    1.0000 </r>
       <r>  -19.9867    1.0000 </r>
       <r>  -19.6597    1.0000 </r>
       <r>  -19.6589    1.0000 </r>
       <r>  -19.0431    1.0000 </r>
       <r>  -18.8890    1.0000 </r>
       <r>  -18.8888    1.0000 </r>
       <r>  -18.5614    1.0000 </r>
       <r>  -18.5606    1.0000 </r>
       <r>  -18.1820    1.0000 </r>
       <r>  -18.1808    1.0000 </r>
       <r>  -18.0016    1.0000 </r>
       <r>  -17.8790    1.0000 </r>
       <r>  -17.6766    1.0000 </r>
       <r>  -17.6157    1.0000 </r>
       <r>  -17.6150    1.0000 </r>
       <r>  -17.4281    1.0000 </r>
[...]
       <r>   -20.5681     0.0000    48.0000 </r>
       <r>   -20.4647     0.0000    48.0000 </r>
       <r>   -20.3613     0.0000    48.0000 </r>
       <r>   -20.2579    30.6817    51.1730 </r>
       <r>   -20.1545     0.0000    52.0000 </r>
       <r>   -20.0511     0.0000    52.0000 </r>
       <r>   -19.9476    25.1579    54.6018 </r>
       <r>   -19.8442     9.5636    55.7890 </r>
       <r>   -19.7408     9.8362    57.1172 </r>
       <r>   -19.6374    25.7760    59.9324 </r>
       <r>   -19.5340     0.0000    60.0000 </r>
       <r>   -19.4305     0.0000    60.0000 </r>
       <r>   -19.3271     0.0000    60.0000 </r>
       <r>   -19.2237     0.0000    60.0000 </r>
       <r>   -19.1203     0.0000    60.0000 </r>
       <r>   -19.0169     6.0862    60.6294 </r>
       <r>   -18.9135    34.3708    64.4879 </r>
       <r>   -18.8100     3.5445    66.0000 </r>
       <r>   -18.7066     0.0000    66.0000 </r>
       <r>   -18.6032     0.0000    66.0000 </r>
       <r>   -18.4998    18.3315    67.8958 </r>
       <r>   -18.3964    11.4135    69.6804 </r>
       <r>   -18.2929     6.5935    71.1486 </r>
       <r>   -18.1895    21.0489    73.4435 </r>
       <r>   -18.0861     0.0000    74.0000 </r>
       <r>   -17.9827     5.6069    74.5799 </r>
       <r>   -17.8793    27.2901    77.7890 </r>
       <r>   -17.7759     0.0000    78.0000 </r>
       <r>   -17.6724     2.5509    78.2638 </r>
       <r>   -17.5690    50.2810    84.0000 </r>
       <r>   -17.4656     0.0041    84.0004 </r>
       <r>   -17.3622    29.2081    87.4208 </r>
       <r>   -17.2588    28.8480    90.8835 </r>
       <r>   -17.1553    38.5491    95.8200 </r>
       <r>   -17.0519     0.0000    96.0000 </r>
       <r>   -16.9485     0.0000    96.0000 </r>
       <r>   -16.8451     0.0000    96.0000 </r>
       <r>   -16.7417     0.0000    96.0000 </r>
       <r>   -16.6383     0.0000    96.0000 </r>
       <r>   -16.5348     0.0000    96.0000 </r>
       <r>   -16.4314     0.0000    96.0000 </r>
       <r>   -16.3280     3.5498    96.3671 </r>
       <r>   -16.2246     5.6438    98.9503 </r>
       <r>   -16.1212     8.8293   100.2464 </r>
       <r>   -16.0177    35.3440   104.1552 </r>
       <r>   -15.9143    22.2515   107.4346 </r>
       <r>   -15.8109     0.0000   108.0000 </r>
       <r>   -15.7075     0.0000   108.0000 </r>
       <r>   -15.6041     0.0000   108.0000 </r>
       <r>   -15.5007     0.0000   108.0000 </r>
       <r>   -15.3972    34.6932   111.5879 </r>
       <r>   -15.2938    12.8097   113.3248 </r>
       <r>   -15.1904    12.7693   115.7539 </r>
       <r>   -15.0870    35.4545   120.0000 </r>
       <r>   -14.9836    57.9901   125.9972 </r>
       <r>   -14.8801     0.0000   126.0000 </r>
       <r>   -14.7767     0.8136   126.0841 </r>
       <r>   -14.6733    11.0039   127.6380 </r>
       <r>   -14.5699    11.1452   129.0526 </r>
       <r>   -14.4665     5.2527   129.7432 </r>
       <r>   -14.3631    24.0537   132.4210 </r>
       <r>   -14.2596     5.5174   133.1706 </r>
       <r>   -14.1562    14.0064   135.3485 </r>
       <r>   -14.0528    19.3418   138.0003 </r>
       <r>   -13.9494    28.3279   141.0963 </r>
       <r>   -13.8460     0.0000   144.0000 </r>
       <r>   -13.7425     0.0000   144.0000 </r>
       <r>   -13.6391     0.0000   144.0000 </r>
       <r>   -13.5357     0.0000   144.0000 </r>
       <r>   -13.4323     0.0000   144.0000 </r>
       <r>   -13.3289     0.0032   144.0003 </r>
       <r>   -13.2255    25.7921   146.9341 </r>
       <r>   -13.1220    76.6387   155.8926 </r>
       <r>   -13.0186     0.0000   156.0000 </r>
       <r>   -12.9152     0.0000   156.0000 </r>
       <r>   -12.8118     0.0000   156.0000 </r>
       <r>   -12.7084     0.0000   156.0000 </r>
       <r>   -12.6049    16.7489   157.7321 </r>
       <r>   -12.5015    83.4480   167.5634 </r>
       <r>   -12.3981    10.7462   169.1113 </r>
       <r>   -12.2947     0.0000   174.0000 </r>
       <r>   -12.1913     0.0000   174.0000 </r>
       <r>   -12.0879     0.0000   174.0000 </r>
       <r>   -11.9844     1.3472   174.1393 </r>
       <r>   -11.8810    12.2455   180.0000 </r>
       <r>   -11.7776     0.0000   180.0000 </r>
       <r>   -11.6742    21.1834   182.1907 </r>
       <r>   -11.5708    29.5052   188.1848 </r>
       <r>   -11.4673    21.0615   191.0448 </r>
       <r>   -11.3639     7.7350   191.9999 </r>
       <r>   -11.2605     0.0000   192.0000 </r>
       <r>   -11.1571     0.0000   192.0000 </r>
       <r>   -11.0537     7.6041   192.7864 </r>
       <r>   -10.9503    14.9452   194.7123 </r>
       <r>   -10.8468    16.1374   197.0023 </r>
       <r>   -10.7434    27.8242   201.0442 </r>
       <r>   -10.6400    21.3962   204.0794 </r>
       <r>   -10.5366    45.3407   209.4557 </r>
       <r>   -10.4332     0.0000   210.0000 </r>
       <r>   -10.3297    15.9196   211.6464 </r>
       <r>   -10.2263    40.0295   216.7398 </r>
       <r>   -10.1229    37.0659   222.0000 </r>
       <r>   -10.0195     0.0000   222.0000 </r>
       <r>    -9.9161    78.1470   230.0818 </r>
       <r>    -9.8127    35.3935   236.7270 </r>
       <r>    -9.7092    57.2791   243.0238 </r>
       <r>    -9.6058    19.4264   245.2424 </r>
       <r>    -9.5024    39.9658   252.0000 </r>
       <r>    -9.3990     5.8529   252.6053 </r>
       <r>    -9.2956    78.9653   264.0000 </r>
       <r>    -9.1921    63.0006   270.5154 </r>
       <r>    -9.0887    27.7884   278.4406 </r>
       <r>    -8.9853    16.7464   280.5319 </r>
       <r>    -8.8819    42.8676   288.0002 </r>
       <r>    -8.7785    58.3597   294.0356 </r>
       <r>    -8.6751    43.1885   300.0000 </r>
       <r>    -8.5716     0.1694   300.0175 </r>
       <r>    -8.4682    50.2809   306.0000 </r>
       <r>    -8.3648    26.9819   308.7904 </r>
       <r>    -8.2614    45.3689   314.2920 </r>
       <r>    -8.1580    13.9520   316.2429 </r>
       <r>    -8.0545     7.3569   317.4609 </r>
       <r>    -7.9511     3.5454   318.0000 </r>
       <r>    -7.8477     0.0000   318.0000 </r>
       <r>    -7.7443    22.8590   320.3640 </r>
       <r>    -7.6409     6.4488   321.2336 </r>
       <r>    -7.5375    40.1042   325.8142 </r>
       <r>    -7.4340     8.3799   330.0000 </r>
       <r>    -7.3306     0.0000   330.0000 </r>
       <r>    -7.2272    46.0911   334.7667 </r>
       <r>    -7.1238    38.6769   342.0000 </r>
       <r>    -7.0204     0.0000   342.0000 </r>
       <r>    -6.9169     0.0000   342.0000 </r>
       <r>    -6.8135    16.8123   343.7387 </r>
       <r>    -6.7101     9.0247   346.0000 </r>
       <r>    -6.6067    36.0954   349.7329 </r>
       <r>    -6.5033    31.9086   354.0000 </r>
       <r>    -6.3999     0.0000   354.0000 </r>
       <r>    -6.2964     9.2332   354.9549 </r>
       <r>    -6.1930    89.5484   365.9944 </r>
       <r>    -6.0896    22.3109   368.3074 </r>
       <r>    -5.9862    36.2113   374.0116 </r>
       <r>    -5.8828    22.7857   376.7565 </r>
       <r>    -5.7793    30.3816   381.1420 </r>
       <r>    -5.6759    23.2063   384.0000 </r>
       <r>    -5.5725     0.0000   384.0000 </r>
       <r>    -5.4691     0.0000   384.0000 </r>
       <r>    -5.3657     0.6599   384.0682 </r>
       <r>    -5.2623    30.1896   387.8222 </r>
       <r>    -5.1588    34.4590   393.5637 </r>
       <r>    -5.0554     0.0000   396.0000 </r>
       <r>    -4.9520     0.0000   396.0000 </r>
       <r>    -4.8486     0.0000   396.0000 </r>
       <r>    -4.7452     0.0000   396.0000 </r>
       <r>    -4.6417     0.0000   396.0000 </r>
       <r>    -4.5383     9.6729   397.0004 </r>
       <r>    -4.4349    27.0740   402.0000 </r>
       <r>    -4.3315     0.0000   402.0000 </r>
       <r>    -4.2281     0.0000   402.0000 </r>
       <r>    -4.1247     0.0000   402.0000 </r>
       <r>    -4.0212     0.0000   402.0000 </r>
       <r>    -3.9178     0.0000   402.0000 </r>
       <r>    -3.8144     0.0000   402.0000 </r>
       <r>    -3.7110     0.0000   402.0000 </r>
       <r>    -3.6076     0.0000   402.0000 </r>
       <r>    -3.5041     0.0000   402.0000 </r>
       <r>    -3.4007     0.0000   402.0000 </r>
       <r>    -3.2973     0.0000   402.0000 </r>
       <r>    -3.1939     0.0000   402.0000 </r>
       <r>    -3.0905     0.0000   402.0000 </r>
       <r>    -2.9871     0.0000   402.0000 </r>
       <r>    -2.8836     0.0000   402.0000 </r>
       <r>    -2.7802     0.0000   402.0000 </r>
       <r>    -2.6768     0.0000   402.0000 </r>
       <r>    -2.5734     0.0000   402.0000 </r>
       <r>    -2.4700     0.0000   402.0000 </r>
       <r>    -2.3665     0.0000   402.0000 </r>
       <r>    -2.2631     0.0000   402.0000 </r>
       <r>    -2.1597     0.0000   402.0000 </r>
       <r>    -2.0563     0.0000   402.0000 </r>
       <r>    -1.9529     1.9133   402.1979 </r>
       <r>    -1.8495    25.0514   405.4575 </r>
       <r>    -1.7460    41.2621   410.2673 </r>
       <r>    -1.6426    54.8185   417.9693 </r>
       <r>    -1.5392     0.0000   418.0000 </r>
       <r>    -1.4358    77.3553   425.9999 </r>
       <r>    -1.3324     1.7928   426.1854 </r>
       <r>    -1.2289    15.7925   432.0000 </r>
       <r>    -1.1255     0.0000   432.0000 </r>
       <r>    -1.0221     0.0000   432.0000 </r>
       <r>    -0.9187    32.0425   435.3138 </r>
       <r>    -0.8153    16.4377   438.0000 </r>
       <r>    -0.7119     0.0000   438.0000 </r>
       <r>    -0.6084     0.0000   438.0000 </r>
       <r>    -0.5050     0.0000   438.0000 </r>
       <r>    -0.4016    44.0763   442.5583 </r>
       <r>    -0.2982     0.0000   444.0000 </r>
       <r>    -0.1948     0.0000   444.0000 </r>
       <r>    -0.0913    14.2189   445.4705 </r>
       <r>     0.0121    12.6761   447.4110 </r>
       <r>     0.1155     3.7566   448.0218 </r>
       <r>     0.2189    23.4915   450.9628 </r>
       <r>     0.3223    22.2870   453.6716 </r>
       <r>     0.4257    77.7253   462.3383 </r>
       <r>     0.5292    35.6837   466.7570 </r>
       <r>     0.6326    11.8736   469.3613 </r>
       <r>     0.7360    29.3743   473.1379 </r>
       <r>     0.8394    47.8327   479.9802 </r>
       <r>     0.9428    31.5134   483.9257 </r>
       <r>     1.0463    47.4959   491.2453 </r>
       <r>     1.1497    50.2774   497.2996 </r>
       <r>     1.2531    42.1076   502.3547 </r>
       <r>     1.3565    74.0265   510.9891 </r>
       <r>     1.4599    73.1942   520.4030 </r>
       <r>     1.5634    56.5458   527.9146 </r>
       <r>     1.6668    72.1115   537.1911 </r>
       <r>     1.7702    39.0716   543.3741 </r>
       <r>     1.8736     2.9007   544.0000 </r>
       <r>     1.9770     0.0000   544.0000 </r>
       <r>     2.0804     0.0000   544.0000 </r>
       <r>     2.1839     0.0000   544.0000 </r>
       <r>     2.2873     0.0000   544.0000 </r>
       <r>     2.3907     0.0000   544.0000 </r>
       <r>     2.4941     0.0000   544.0000 </r>
       <r>     2.5975     0.0000   544.0000 </r>
       <r>     2.7010     0.0000   544.0000 </r>
       <r>     2.8044     0.0000   544.0000 </r>
       <r>     2.9078     0.0000   544.0000 </r>
       <r>     3.0112     0.0000   544.0000 </r>
       <r>     3.1146     0.0000   544.0000 </r>
       <r>     3.2180     0.0000   544.0000 </r>
      </set>
     </set>
    </array>
   </total>
  </dos>
 </calculation>
 <structure name="finalpos" >
  <crystal>
   <varray name="basis" >
    <v>      23.12459742      -0.00067754       0.00000000 </v>
    <v>     -11.56287950      20.02364395       0.00000000 </v>
    <v>       0.00000000       0.00000000      20.00000000 </v>
   </varray>
   <i name="volume">   9260.61742024 </i>
   <varray name="rec_basis" >
    <v>       0.04324473       0.02497216       0.00000000 </v>
    <v>       0.00000146       0.04994180       0.00000000 </v>
    <v>       0.00000000       0.00000000       0.05000000 </v>
   </varray>
  </crystal>
  <varray name="positions" >
   <v>       0.53069900       0.16136082       0.50736713 </v>
   <v>       0.49688238       0.09189748       0.50380829 </v>
   <v>       0.49871788       0.23526386       0.57060635 </v>
   <v>       0.50020594       0.20449782       0.51012218 </v>
   <v>       0.50175964       0.20791655       0.63759067 </v>
   <v>       0.71060888       0.20423813       0.50945970 </v>
   <v>       0.53070095       0.05533793       0.50218904 </v>
   <v>       0.60099798       0.09222063       0.50296908 </v>
   <v>       0.63637963       0.16164336       0.50693122 </v>
   <v>       0.60110931       0.19654985       0.50951391 </v>
   <v>       0.48525100       0.22870544       0.45235922 </v>
   <v>       0.86900207       0.39363333       0.50750911 </v>
   <v>       0.93845563       0.42932342       0.50409720 </v>
   <v>       0.49971491       0.31985708       0.50927230 </v>
   <v>       0.79503886       0.28791742       0.57086069 </v>
   <v>       0.82596667       0.32001482       0.51037233 </v>
   <v>       0.82220639       0.31844386       0.63783839 </v>
   <v>       0.49716765       0.42942177       0.50279425 </v>
   <v>       0.53124747       0.39408560       0.50687353 </v>
   <v>       0.60141825       0.42939621       0.50950574 </v>
   <v>       0.83376155       0.42880632       0.50944775 </v>
   <v>       0.80197979       0.28069625       0.45268864 </v>
   <v>       0.63662051       0.49980837       0.50725791 </v>
   <v>       0.60094305       0.53357498       0.50367967 </v>
   <v>       0.42298392       0.50289717       0.50412539 </v>
   <v>       0.38740107       0.53676634       0.50780346 </v>
   <v>       0.74285046       0.53241726       0.57022707 </v>
   <v>       0.71025421       0.53030597       0.50978888 </v>
   <v>       0.82595125       0.53054035       0.50884191 </v>
   <v>       0.71282660       0.53007699       0.63725450 </v>
   <v>       0.28182480       0.50511310       0.57150318 </v>
   <v>       0.31379035       0.50629069       0.51091091 </v>
   <v>       0.19795980       0.50577164       0.51037939 </v>
   <v>       0.31251408       0.50837301       0.63837327 </v>
   <v>       0.53056486       0.49972938       0.50203642 </v>
   <v>       0.49335571       0.53667051       0.50209714 </v>
   <v>       0.97500150       0.49970440       0.50237791 </v>
   <v>       0.93808039       0.53308257       0.50289744 </v>
   <v>       0.86864063       0.49898491       0.50673006 </v>
   <v>       0.04916020       0.53691609       0.50263566 </v>
   <v>       0.15538732       0.53741917       0.50784850 </v>
   <v>       0.08598599       0.50344385       0.50361881 </v>
   <v>       0.74898713       0.54446449       0.45181090 </v>
   <v>       0.27428730       0.49085414       0.45335523 </v>
   <v>       0.52768903       0.94468333       0.50399274 </v>
   <v>       0.49398466       0.87524552       0.50778161 </v>
   <v>       0.08577203       0.60729829       0.50444725 </v>
   <v>       0.15522416       0.64289468       0.50825197 </v>
   <v>       0.52603321       0.80131243       0.57075895 </v>
   <v>       0.52451542       0.83215714       0.51034590 </v>
   <v>       0.52463745       0.71666886       0.50919725 </v>
   <v>       0.52291838       0.82852703       0.63779074 </v>
   <v>       0.22958239       0.74827132       0.57185439 </v>
   <v>       0.19849918       0.71650505       0.51128372 </v>
   <v>       0.31406208       0.83211692       0.51062701 </v>
   <v>       0.20227008       0.71763744       0.63876956 </v>
   <v>       0.49380368       0.98117736       0.50238379 </v>
   <v>       0.42359446       0.83997839       0.51025959 </v>
   <v>       0.38825135       0.87480345       0.50786792 </v>
   <v>       0.42350968       0.94421606       0.50351794 </v>
   <v>       0.42269763       0.60719574       0.50972693 </v>
   <v>       0.49286660       0.64241451       0.50682157 </v>
   <v>       0.52682257       0.60697201       0.50266605 </v>
   <v>       0.19034233       0.60759709       0.51042252 </v>
   <v>       0.53924933       0.80794691       0.45245928 </v>
   <v>       0.22252573       0.75606963       0.45376042 </v>
   <v>       0.73641767       0.23026412       0.56957475 </v>
   <v>       0.74418859       0.22230353       0.45136589 </v>
   <v>       0.49960375       0.29384856       0.56935737 </v>
   <v>       0.48470199       0.28652198       0.45107185 </v>
   <v>       0.80052357       0.53148073       0.56895493 </v>
   <v>       0.22412318       0.50601944       0.57042940 </v>
   <v>       0.80722175       0.54478672       0.45046105 </v>
   <v>       0.21590424       0.49025476       0.45223232 </v>
   <v>       0.52508848       0.74270061       0.56938674 </v>
   <v>       0.28836853       0.80576587       0.57069918 </v>
   <v>       0.53954680       0.75001138       0.45099993 </v>
   <v>       0.28039615       0.81440462       0.45259829 </v>
   <v>       0.44251553       0.06632362       0.50317612 </v>
   <v>       0.47502177       0.15313885       0.63782214 </v>
   <v>       0.55415947       0.22488048       0.65057655 </v>
   <v>       0.48143952       0.22672759       0.67591977 </v>
   <v>       0.80342018       0.27939183       0.67625546 </v>
   <v>       0.63012508       0.06704928       0.50128898 </v>
   <v>       0.47714918       0.20257776       0.40465899 </v>
   <v>       0.68039503       0.28641165       0.51552478 </v>
   <v>       0.61198115       0.35013499       0.51567176 </v>
   <v>       0.39416004       0.44852660       0.50374894 </v>
   <v>       0.74386094       0.41818172       0.51519045 </v>
   <v>       0.96402986       0.40054158       0.50366443 </v>
   <v>       0.87698128       0.34661892       0.63818961 </v>
   <v>       0.80504511       0.35377026       0.65063443 </v>
   <v>       0.27352908       0.48786587       0.67683763 </v>
   <v>       0.44287038       0.40026006       0.50090793 </v>
   <v>       0.06077813       0.44914265       0.50179907 </v>
   <v>       0.82829049       0.29858270       0.40505906 </v>
   <v>       0.62972499       0.58793971       0.50302665 </v>
   <v>       0.68474001       0.55676927       0.63721272 </v>
   <v>       0.67752751       0.47779231       0.65084917 </v>
   <v>       0.75216963       0.55087233       0.67535966 </v>
   <v>       0.34079508       0.48187947       0.63845403 </v>
   <v>       0.34777326       0.56084695       0.65133903 </v>
   <v>       0.96322813       0.58738522       0.50100643 </v>
   <v>       0.73072266       0.55211752       0.40404965 </v>
   <v>       0.29200885       0.48231275       0.40568657 </v>
   <v>       0.34438663       0.75016630       0.51671606 </v>
   <v>       0.58204450       0.97029558       0.50315764 </v>
   <v>       0.41226458       0.68655800       0.51582806 </v>
   <v>       0.28014109       0.61805205       0.51641989 </v>
   <v>       0.06023509       0.63611704       0.50375614 </v>
   <v>       0.54996104       0.88331141       0.63825246 </v>
   <v>       0.47051356       0.81183350       0.65051697 </v>
   <v>       0.54283287       0.80934179       0.67615332 </v>
   <v>       0.14749328       0.68956318       0.63902308 </v>
   <v>       0.21931735       0.68223725       0.65162388 </v>
   <v>       0.22105245       0.75669356       0.67717740 </v>
   <v>       0.39429457       0.96929470       0.50170338 </v>
   <v>       0.58111021       0.63607573       0.50059913 </v>
   <v>       0.54731544       0.83414619       0.40481448 </v>
   <v>       0.19614713       0.73845972       0.40613319 </v>
   <v>       0.63166633       0.26495718       0.51337271 </v>
   <v>       0.63927532       0.39886180       0.51347254 </v>
   <v>       0.76534787       0.39092502       0.51329009 </v>
   <v>       0.39308616       0.77156026       0.51406589 </v>
   <v>       0.38494125       0.63782222       0.51373343 </v>
   <v>       0.25875190       0.64538028       0.51421631 </v>
  </varray>
 </structure>
</modeling>
