<?xml version="1.0" encoding="ISO-8859-1"?>
<modeling>
 <generator>
  <i name="program" type="string">vasp </i>
  <i name="version" type="string">5.4.4.18Apr17-6-g9f103f2a35  </i>
  <i name="subversion" type="string">(build Jun 07 2020 16:50:00) complex            parallel </i>
  <i name="platform" type="string">LinuxIFC </i>
  <i name="date" type="string">2023 02 16 </i>
  <i name="time" type="string">13:09:22 </i>
 </generator>
 <incar>
  <i type="string" name="SYSTEM">Simulation for cell shape cell volume r</i>
  <i type="int" name="ISTART">     1</i>
  <i type="string" name="PREC">high</i>
  <i type="string" name="ALGO">48</i>
  <i type="int" name="ICHARG">    11</i>
  <i type="int" name="NELM">   200</i>
  <i type="int" name="IBRION">    -1</i>
  <i name="EDIFF">      0.00001000</i>
  <i name="EDIFFG">     -0.01000000</i>
  <i type="int" name="NSW">     0</i>
  <i type="int" name="ISIF">     2</i>
  <i name="ENCUT">    500.00000000</i>
  <i name="POTIM">      0.30000000</i>
  <i type="string" name="LREAL">A</i>
  <i type="int" name="ISMEAR">     0</i>
  <i name="SIGMA">      0.01000000</i>
  <i type="int" name="NWRITE">     0</i>
  <i type="logical" name="LWAVE"> F  </i>
  <i type="logical" name="LCHARG"> F  </i>
  <v type="int" name="KPOINT_BSE">    -1     0     0     0</v>
  <i type="int" name="NELM">   200</i>
  <i type="string" name="GGA">PE</i>
 </incar>
 <structure name="primitive_cell" >
  <crystal>
   <varray name="basis" >
    <v>      22.11756890       0.01618011       0.00000000 </v>
    <v>     -11.04456417      19.17881301       0.00000000 </v>
    <v>       0.00000000       0.00000000      20.00000000 </v>
   </varray>
   <i name="volume">   8487.34840634 </i>
   <varray name="rec_basis" >
    <v>       0.04519389       0.02602595       0.00000000 </v>
    <v>      -0.00003813       0.05211891       0.00000000 </v>
    <v>       0.00000000       0.00000000       0.05000000 </v>
   </varray>
  </crystal>
  <varray name="positions" >
   <v>      -0.27122934       0.26425124      -0.48772515 </v>
   <v>      -0.29838613       0.29395189      -0.48901116 </v>
   <v>      -0.16142085       0.32883121       0.49348754 </v>
   <v>      -0.37196168       0.25766728      -0.49082586 </v>
   <v>      -0.26193824       0.36678237      -0.48879799 </v>
   <v>      -0.37725055       0.16374774      -0.47977179 </v>
   <v>      -0.14805019       0.37266934      -0.47229823 </v>
   <v>      -0.40641795       0.18535366      -0.49372891 </v>
   <v>      -0.15826674       0.35150221      -0.42086854 </v>
   <v>      -0.18946618       0.40478949      -0.48965525 </v>
   <v>      -0.40840852       0.29420411      -0.49145300 </v>
   <v>      -0.29838357       0.40396878      -0.48954962 </v>
   <v>      -0.16872840       0.45536496      -0.47557547 </v>
   <v>      -0.37122798       0.36772115      -0.49125401 </v>
   <v>      -0.48060561       0.14370287      -0.47979575 </v>
   <v>      -0.07198192       0.42513209      -0.48218519 </v>
   <v>      -0.38863714       0.07319395      -0.37800722 </v>
   <v>      -0.26879344       0.46072083      -0.48869400 </v>
   <v>      -0.46520053       0.26707807      -0.49207483 </v>
   <v>      -0.06725216       0.38427264       0.42187035 </v>
   <v>      -0.49398769       0.15322258      -0.42904248 </v>
   <v>       0.49048891       0.15756867       0.48437845 </v>
   <v>      -0.44795195       0.06561593      -0.38268009 </v>
   <v>      -0.03820788       0.42485145       0.45881511 </v>
   <v>       0.49620158       0.06770361      -0.48959925 </v>
   <v>      -0.09028852       0.43437194      -0.33510323 </v>
   <v>      -0.48790915       0.02983032      -0.44361239 </v>
   <v>      -0.03367335       0.47867126      -0.43626626 </v>
   <v>      -0.47590850       0.08643858      -0.34262131 </v>
   <v>      -0.06887402       0.48329125      -0.37499148 </v>
   <v>      -0.40883756       0.40260984      -0.49451502 </v>
   <v>       0.46122917       0.03322785       0.45205868 </v>
   <v>      -0.45976423       0.37350914      -0.48124248 </v>
   <v>      -0.07538268      -0.46437902      -0.36995021 </v>
   <v>       0.44895824       0.06174753       0.41507137 </v>
   <v>       0.03099783       0.47495432       0.44673593 </v>
   <v>       0.49454224      -0.03917118      -0.45568874 </v>
   <v>      -0.33309673      -0.49386213       0.48656255 </v>
   <v>      -0.37624629       0.47631441      -0.47829377 </v>
   <v>      -0.35393082       0.48789280      -0.42729427 </v>
   <v>       0.03526506      -0.47002803      -0.44897314 </v>
   <v>       0.44187674      -0.03621546       0.44073719 </v>
   <v>       0.05665531       0.47271164       0.40096293 </v>
   <v>      -0.48712535      -0.07640543      -0.40517123 </v>
   <v>       0.06905679      -0.47120571       0.49218870 </v>
   <v>       0.45848061      -0.07371758       0.48618452 </v>
   <v>      -0.45539278      -0.10577032      -0.42539181 </v>
   <v>       0.49583719      -0.07448288      -0.34677806 </v>
   <v>       0.41304963      -0.06251201       0.39558195 </v>
   <v>      -0.42888065       0.49993309      -0.48714514 </v>
   <v>       0.07325774      -0.41493129      -0.39833133 </v>
   <v>      -0.43582752       0.47236583      -0.34012344 </v>
   <v>       0.07205974      -0.43436802      -0.34023465 </v>
   <v>      -0.48534510       0.44499065      -0.37937521 </v>
   <v>       0.46244429       0.38626487      -0.37394893 </v>
   <v>      -0.38954087      -0.45478848       0.41652694 </v>
   <v>       0.47730549      -0.15947209       0.47834726 </v>
   <v>       0.43343235      -0.14977289       0.47466551 </v>
   <v>      -0.48168047       0.48486193      -0.44030710 </v>
   <v>       0.14477427      -0.41979951       0.47945800 </v>
   <v>      -0.42952393      -0.46612585       0.45414563 </v>
   <v>       0.10242807      -0.35379881      -0.41808622 </v>
   <v>       0.17775292      -0.47953359      -0.47029642 </v>
   <v>       0.15788614      -0.42692566       0.42768961 </v>
   <v>       0.41234300      -0.16376294       0.42325337 </v>
   <v>       0.15374191      -0.36655101       0.48328623 </v>
   <v>       0.18777140      -0.42932432      -0.47066886 </v>
   <v>       0.38162925      -0.19111591      -0.47437058 </v>
   <v>       0.34155160      -0.18084347      -0.47426656 </v>
   <v>       0.46690831      -0.49724688      -0.45179570 </v>
   <v>      -0.47986695      -0.44696497       0.44317942 </v>
   <v>       0.45999773      -0.25224318      -0.47253222 </v>
   <v>       0.46709180      -0.46246203       0.48958446 </v>
   <v>      -0.47847110      -0.41925032       0.39756981 </v>
   <v>       0.25991978      -0.38191239      -0.47121659 </v>
   <v>       0.35689045      -0.26328017      -0.47302172 </v>
   <v>       0.41277216       0.48602185      -0.40012831 </v>
   <v>       0.40389019      -0.28837057      -0.47268723 </v>
   <v>       0.43326614      -0.49572848      -0.34228321 </v>
   <v>       0.28690585      -0.46323587      -0.46943021 </v>
   <v>       0.24869550      -0.28996781      -0.47167881 </v>
   <v>       0.30675308      -0.40716526      -0.47093270 </v>
   <v>       0.35125129       0.45426127      -0.41887423 </v>
   <v>       0.28491585      -0.30994541      -0.47216063 </v>
   <v>       0.41554797      -0.43797745       0.47797971 </v>
   <v>       0.47643870      -0.34509314      -0.47275398 </v>
   <v>       0.36228346      -0.48194728       0.48271966 </v>
   <v>       0.37872860      -0.36031452      -0.47183823 </v>
   <v>       0.42171910      -0.41810574       0.42614600 </v>
   <v>       0.42620076      -0.38513294      -0.47217224 </v>
  </varray>
 </structure>
 <varray name="primitive_index" >
  <v type="int" >        1 </v>
  <v type="int" >       34 </v>
  <v type="int" >       15 </v>
  <v type="int" >       33 </v>
  <v type="int" >       35 </v>
  <v type="int" >        6 </v>
  <v type="int" >       50 </v>
  <v type="int" >       81 </v>
  <v type="int" >       16 </v>
  <v type="int" >       80 </v>
  <v type="int" >       32 </v>
  <v type="int" >       36 </v>
  <v type="int" >        5 </v>
  <v type="int" >       31 </v>
  <v type="int" >       54 </v>
  <v type="int" >       47 </v>
  <v type="int" >       77 </v>
  <v type="int" >        2 </v>
  <v type="int" >        3 </v>
  <v type="int" >       23 </v>
  <v type="int" >       18 </v>
  <v type="int" >       17 </v>
  <v type="int" >       89 </v>
  <v type="int" >       61 </v>
  <v type="int" >       51 </v>
  <v type="int" >       71 </v>
  <v type="int" >       52 </v>
  <v type="int" >       48 </v>
  <v type="int" >       75 </v>
  <v type="int" >       87 </v>
  <v type="int" >       79 </v>
  <v type="int" >       65 </v>
  <v type="int" >        4 </v>
  <v type="int" >       73 </v>
  <v type="int" >       27 </v>
  <v type="int" >       60 </v>
  <v type="int" >       53 </v>
  <v type="int" >       13 </v>
  <v type="int" >       46 </v>
  <v type="int" >       14 </v>
  <v type="int" >       49 </v>
  <v type="int" >       64 </v>
  <v type="int" >       24 </v>
  <v type="int" >       90 </v>
  <v type="int" >       59 </v>
  <v type="int" >       63 </v>
  <v type="int" >       78 </v>
  <v type="int" >       76 </v>
  <v type="int" >       28 </v>
  <v type="int" >       43 </v>
  <v type="int" >       88 </v>
  <v type="int" >       67 </v>
  <v type="int" >       72 </v>
  <v type="int" >       85 </v>
  <v type="int" >       69 </v>
  <v type="int" >       19 </v>
  <v type="int" >       30 </v>
  <v type="int" >       66 </v>
  <v type="int" >       44 </v>
  <v type="int" >       62 </v>
  <v type="int" >       57 </v>
  <v type="int" >       74 </v>
  <v type="int" >       11 </v>
  <v type="int" >       25 </v>
  <v type="int" >       29 </v>
  <v type="int" >       26 </v>
  <v type="int" >       83 </v>
  <v type="int" >       84 </v>
  <v type="int" >       12 </v>
  <v type="int" >       45 </v>
  <v type="int" >       56 </v>
  <v type="int" >        9 </v>
  <v type="int" >       55 </v>
  <v type="int" >       20 </v>
  <v type="int" >       41 </v>
  <v type="int" >       39 </v>
  <v type="int" >       86 </v>
  <v type="int" >       38 </v>
  <v type="int" >       68 </v>
  <v type="int" >        8 </v>
  <v type="int" >        7 </v>
  <v type="int" >       42 </v>
  <v type="int" >       70 </v>
  <v type="int" >       40 </v>
  <v type="int" >       58 </v>
  <v type="int" >       10 </v>
  <v type="int" >       22 </v>
  <v type="int" >       37 </v>
  <v type="int" >       21 </v>
  <v type="int" >       82 </v>
 </varray>
 <kpoints>
  <generation param="listgenerated">
   <i name="divisions" type="int">      20 </i>
   <v>       0.00000000       0.00000000       0.00000000 </v>
   <v>       0.50000000       0.00000000       0.00000000 </v>
   <v>       0.33333333       0.33333333       0.00000000 </v>
   <v>       0.00000000       0.00000000       0.00000000 </v>
  </generation>
  <varray name="kpointlist" >
   <v>       0.00000000       0.00000000       0.00000000 </v>
   <v>       0.02631579       0.00000000       0.00000000 </v>
   <v>       0.05263158       0.00000000       0.00000000 </v>
   <v>       0.07894737       0.00000000       0.00000000 </v>
   <v>       0.10526316       0.00000000       0.00000000 </v>
   <v>       0.13157895       0.00000000       0.00000000 </v>
   <v>       0.15789474       0.00000000       0.00000000 </v>
   <v>       0.18421053       0.00000000       0.00000000 </v>
   <v>       0.21052632       0.00000000       0.00000000 </v>
   <v>       0.23684211       0.00000000       0.00000000 </v>
   <v>       0.26315789       0.00000000       0.00000000 </v>
   <v>       0.28947368       0.00000000       0.00000000 </v>
   <v>       0.31578947       0.00000000       0.00000000 </v>
   <v>       0.34210526       0.00000000       0.00000000 </v>
   <v>       0.36842105       0.00000000       0.00000000 </v>
   <v>       0.39473684       0.00000000       0.00000000 </v>
   <v>       0.42105263       0.00000000       0.00000000 </v>
   <v>       0.44736842       0.00000000       0.00000000 </v>
   <v>       0.47368421       0.00000000       0.00000000 </v>
   <v>       0.50000000       0.00000000       0.00000000 </v>
   <v>       0.50000000       0.00000000       0.00000000 </v>
   <v>       0.49122807       0.01754386       0.00000000 </v>
   <v>       0.48245614       0.03508772       0.00000000 </v>
   <v>       0.47368421       0.05263158       0.00000000 </v>
   <v>       0.46491228       0.07017544       0.00000000 </v>
   <v>       0.45614035       0.08771930       0.00000000 </v>
   <v>       0.44736842       0.10526316       0.00000000 </v>
   <v>       0.43859649       0.12280702       0.00000000 </v>
   <v>       0.42982456       0.14035088       0.00000000 </v>
   <v>       0.42105263       0.15789474       0.00000000 </v>
   <v>       0.41228070       0.17543860       0.00000000 </v>
   <v>       0.40350877       0.19298246       0.00000000 </v>
   <v>       0.39473684       0.21052632       0.00000000 </v>
   <v>       0.38596491       0.22807018       0.00000000 </v>
   <v>       0.37719298       0.24561404       0.00000000 </v>
   <v>       0.36842105       0.26315789       0.00000000 </v>
   <v>       0.35964912       0.28070175       0.00000000 </v>
   <v>       0.35087719       0.29824561       0.00000000 </v>
   <v>       0.34210526       0.31578947       0.00000000 </v>
   <v>       0.33333333       0.33333333       0.00000000 </v>
   <v>       0.33333333       0.33333333       0.00000000 </v>
   <v>       0.31578947       0.31578947       0.00000000 </v>
   <v>       0.29824561       0.29824561       0.00000000 </v>
   <v>       0.28070175       0.28070175       0.00000000 </v>
   <v>       0.26315789       0.26315789       0.00000000 </v>
   <v>       0.24561404       0.24561404       0.00000000 </v>
   <v>       0.22807018       0.22807018       0.00000000 </v>
   <v>       0.21052632       0.21052632       0.00000000 </v>
   <v>       0.19298246       0.19298246       0.00000000 </v>
   <v>       0.17543860       0.17543860       0.00000000 </v>
   <v>       0.15789474       0.15789474       0.00000000 </v>
   <v>       0.14035088       0.14035088       0.00000000 </v>
   <v>       0.12280702       0.12280702       0.00000000 </v>
   <v>       0.10526316       0.10526316       0.00000000 </v>
   <v>       0.08771930       0.08771930       0.00000000 </v>
   <v>       0.07017544       0.07017544       0.00000000 </v>
   <v>       0.05263158       0.05263158       0.00000000 </v>
   <v>       0.03508772       0.03508772       0.00000000 </v>
   <v>       0.01754386       0.01754386       0.00000000 </v>
   <v>       0.00000000       0.00000000       0.00000000 </v>
  </varray>
  <varray name="weights" >
   <v>       0.01666667 </v>
   <v>       0.01666667 </v>
   <v>       0.01666667 </v>
   <v>       0.01666667 </v>
   <v>       0.01666667 </v>
   <v>       0.01666667 </v>
   <v>       0.01666667 </v>
   <v>       0.01666667 </v>
   <v>       0.01666667 </v>
   <v>       0.01666667 </v>
   <v>       0.01666667 </v>
   <v>       0.01666667 </v>
   <v>       0.01666667 </v>
   <v>       0.01666667 </v>
   <v>       0.01666667 </v>
   <v>       0.01666667 </v>
   <v>       0.01666667 </v>
   <v>       0.01666667 </v>
   <v>       0.01666667 </v>
   <v>       0.01666667 </v>
   <v>       0.01666667 </v>
   <v>       0.01666667 </v>
   <v>       0.01666667 </v>
   <v>       0.01666667 </v>
   <v>       0.01666667 </v>
   <v>       0.01666667 </v>
   <v>       0.01666667 </v>
   <v>       0.01666667 </v>
   <v>       0.01666667 </v>
   <v>       0.01666667 </v>
   <v>       0.01666667 </v>
   <v>       0.01666667 </v>
   <v>       0.01666667 </v>
   <v>       0.01666667 </v>
   <v>       0.01666667 </v>
   <v>       0.01666667 </v>
   <v>       0.01666667 </v>
   <v>       0.01666667 </v>
   <v>       0.01666667 </v>
   <v>       0.01666667 </v>
   <v>       0.01666667 </v>
   <v>       0.01666667 </v>
   <v>       0.01666667 </v>
   <v>       0.01666667 </v>
   <v>       0.01666667 </v>
   <v>       0.01666667 </v>
   <v>       0.01666667 </v>
   <v>       0.01666667 </v>
   <v>       0.01666667 </v>
   <v>       0.01666667 </v>
   <v>       0.01666667 </v>
   <v>       0.01666667 </v>
   <v>       0.01666667 </v>
   <v>       0.01666667 </v>
   <v>       0.01666667 </v>
   <v>       0.01666667 </v>
   <v>       0.01666667 </v>
   <v>       0.01666667 </v>
   <v>       0.01666667 </v>
   <v>       0.01666667 </v>
  </varray>
 </kpoints>
 <parameters>
  <separator name="general" >
   <i type="string" name="SYSTEM">Simulation for cell shape cell volume r</i>
   <i type="logical" name="LCOMPAT"> F  </i>
  </separator>
  <separator name="electronic" >
   <i type="string" name="PREC">high</i>
   <i name="ENMAX">    500.00000000</i>
   <i name="ENAUG">    644.87300000</i>
   <i name="EDIFF">      0.00001000</i>
   <i type="int" name="IALGO">    38</i>
   <i type="int" name="IWAVPR">    10</i>
   <i type="int" name="NBANDS">   208</i>
   <i name="NELECT">    306.00000000</i>
   <i type="int" name="TURBO">     0</i>
   <i type="int" name="IRESTART">     0</i>
   <i type="int" name="NREBOOT">     0</i>
   <i type="int" name="NMIN">     0</i>
   <i name="EREF">      0.00000000</i>
   <separator name="electronic smearing" >
    <i type="int" name="ISMEAR">     0</i>
    <i name="SIGMA">      0.01000000</i>
    <i name="KSPACING">      0.50000000</i>
    <i type="logical" name="KGAMMA"> T  </i>
   </separator>
   <separator name="electronic projectors" >
    <i type="logical" name="LREAL"> T  </i>
    <v name="ROPT">     -0.00040000     -0.00040000     -0.00040000     -0.00040000</v>
    <i type="int" name="LMAXPAW">  -100</i>
    <i type="int" name="LMAXMIX">     2</i>
    <i type="logical" name="NLSPLINE"> F  </i>
   </separator>
   <separator name="electronic startup" >
    <i type="int" name="ISTART">     1</i>
    <i type="int" name="ICHARG">    11</i>
    <i type="int" name="INIWAV">     1</i>
   </separator>
   <separator name="electronic spin" >
    <i type="int" name="ISPIN">     1</i>
    <i type="logical" name="LNONCOLLINEAR"> F  </i>
    <v name="MAGMOM">      1.00000000      1.00000000      1.00000000      1.00000000      1.00000000      1.00000000      1.00000000      1.00000000      1.00000000      1.00000000      1.00000000      1.00000000      1.00000000      1.00000000      1.00000000      1.00000000      1.00000000      1.00000000      1.00000000      1.00000000
      1.00000000      1.00000000      1.00000000      1.00000000      1.00000000      1.00000000      1.00000000      1.00000000      1.00000000      1.00000000      1.00000000      1.00000000      1.00000000      1.00000000      1.00000000      1.00000000      1.00000000      1.00000000      1.00000000      1.00000000
      1.00000000      1.00000000      1.00000000      1.00000000      1.00000000      1.00000000      1.00000000      1.00000000      1.00000000      1.00000000      1.00000000      1.00000000      1.00000000      1.00000000      1.00000000      1.00000000      1.00000000      1.00000000      1.00000000      1.00000000
      1.00000000      1.00000000      1.00000000      1.00000000      1.00000000      1.00000000      1.00000000      1.00000000      1.00000000      1.00000000      1.00000000      1.00000000      1.00000000      1.00000000      1.00000000      1.00000000      1.00000000      1.00000000      1.00000000      1.00000000
      1.00000000      1.00000000      1.00000000      1.00000000      1.00000000      1.00000000      1.00000000      1.00000000      1.00000000      1.00000000</v>
    <i name="NUPDOWN">     -1.00000000</i>
    <i type="logical" name="LSORBIT"> F  </i>
    <v name="SAXIS">      0.00000000      0.00000000      1.00000000</v>
    <i type="logical" name="LSPIRAL"> F  </i>
    <v name="QSPIRAL">      0.00000000      0.00000000      0.00000000</v>
    <i type="logical" name="LZEROZ"> F  </i>
   </separator>
   <separator name="electronic exchange-correlation" >
    <i type="logical" name="LASPH"> F  </i>
    <i type="logical" name="LMETAGGA"> F  </i>
   </separator>
   <separator name="electronic convergence" >
    <i type="int" name="NELM">   200</i>
    <i type="int" name="NELMDL">     0</i>
    <i type="int" name="NELMIN">     2</i>
    <i name="ENINI">    500.00000000</i>
    <separator name="electronic convergence detail" >
     <i type="logical" name="LDIAG"> T  </i>
     <i type="logical" name="LSUBROT"> F  </i>
     <i name="WEIMIN">      0.00000000</i>
     <i name="EBREAK">      0.00000001</i>
     <i name="DEPER">      0.30000000</i>
     <i type="int" name="NRMM">     4</i>
     <i name="TIME">      0.40000000</i>
    </separator>
   </separator>
   <separator name="electronic mixer" >
    <i name="AMIX">      0.40000000</i>
    <i name="BMIX">      1.00000000</i>
    <i name="AMIN">      0.10000000</i>
    <i name="AMIX_MAG">      1.60000000</i>
    <i name="BMIX_MAG">      1.00000000</i>
    <separator name="electronic mixer details" >
     <i type="int" name="IMIX">     4</i>
     <i type="logical" name="MIXFIRST"> F  </i>
     <i type="int" name="MAXMIX">   -45</i>
     <i name="WC">    100.00000000</i>
     <i type="int" name="INIMIX">     1</i>
     <i type="int" name="MIXPRE">     1</i>
     <i type="int" name="MREMOVE">     5</i>
    </separator>
   </separator>
   <separator name="electronic dipolcorrection" >
    <i type="logical" name="LDIPOL"> F  </i>
    <i type="logical" name="LMONO"> F  </i>
    <i type="int" name="IDIPOL">     0</i>
    <i name="EPSILON">      1.00000000</i>
    <v name="DIPOL">   -100.00000000   -100.00000000   -100.00000000</v>
    <i name="EFIELD">      0.00000000</i>
   </separator>
  </separator>
  <separator name="grids" >
   <i type="int" name="NGX">   162</i>
   <i type="int" name="NGY">   162</i>
   <i type="int" name="NGZ">   150</i>
   <i type="int" name="NGXF">   250</i>
   <i type="int" name="NGYF">   250</i>
   <i type="int" name="NGZF">   224</i>
   <i type="logical" name="ADDGRID"> F  </i>
  </separator>
  <separator name="ionic" >
   <i type="int" name="NSW">     0</i>
   <i type="int" name="IBRION">    -1</i>
   <i type="int" name="MDALGO">     0</i>
   <i type="int" name="ISIF">     2</i>
   <i name="PSTRESS">      0.00000000</i>
   <i name="EDIFFG">     -0.01000000</i>
   <i type="int" name="NFREE">     0</i>
   <i name="POTIM">      0.30000000</i>
   <i name="SMASS">     -3.00000000</i>
   <i name="SCALEE">      1.00000000</i>
  </separator>
  <separator name="ionic md" >
   <i name="TEBEG">      0.00010000</i>
   <i name="TEEND">      0.00010000</i>
   <i type="int" name="NBLOCK">     1</i>
   <i type="int" name="KBLOCK">     1</i>
   <i type="int" name="NPACO">   256</i>
   <i name="APACO">     16.00000000</i>
  </separator>
  <separator name="symmetry" >
   <i type="int" name="ISYM">     2</i>
   <i name="SYMPREC">      0.00001000</i>
  </separator>
  <separator name="dos" >
   <i type="int" name="LORBIT">     0</i>
   <v name="RWIGS">     -1.00000000     -1.00000000     -1.00000000     -1.00000000</v>
   <i type="int" name="NEDOS">   301</i>
   <i name="EMIN">     10.00000000</i>
   <i name="EMAX">    -10.00000000</i>
   <i name="EFERMI">      0.00000000</i>
  </separator>
  <separator name="writing" >
   <i type="int" name="NWRITE">     0</i>
   <i type="logical" name="LWAVE"> F  </i>
   <i type="logical" name="LDOWNSAMPLE"> F  </i>
   <i type="logical" name="LCHARG"> F  </i>
   <i type="logical" name="LPARD"> F  </i>
   <i type="logical" name="LVTOT"> F  </i>
   <i type="logical" name="LVHAR"> F  </i>
   <i type="logical" name="LELF"> F  </i>
   <i type="logical" name="LOPTICS"> F  </i>
   <v name="STM">      0.00000000      0.00000000      0.00000000      0.00000000      0.00000000      0.00000000      0.00000000</v>
  </separator>
  <separator name="performance" >
   <i type="int" name="NPAR">    16</i>
   <i type="int" name="NSIM">     4</i>
   <i type="int" name="NBLK">    -1</i>
   <i type="logical" name="LPLANE"> T  </i>
   <i type="logical" name="LSCALAPACK"> T  </i>
   <i type="logical" name="LSCAAWARE"> F  </i>
   <i type="logical" name="LSCALU"> F  </i>
   <i type="logical" name="LASYNC"> F  </i>
   <i type="logical" name="LORBITALREAL"> F  </i>
  </separator>
  <separator name="miscellaneous" >
   <i type="int" name="IDIOT">     3</i>
   <i type="int" name="ISPECIAL">     0</i>
   <i type="logical" name="LMUSIC"> F  </i>
   <v name="POMASS">      1.00000000     12.01100000     16.00000000     14.00100000</v>
   <v name="DARWINR">      0.00000000      0.00000000      0.00000000      0.00000000</v>
   <v name="DARWINV">      1.00000000      1.00000000      1.00000000      1.00000000</v>
   <i type="logical" name="LCORR"> T  </i>
  </separator>
  <i type="logical" name="GGA_COMPAT"> T  </i>
  <i type="logical" name="LBERRY"> F  </i>
  <i type="int" name="ICORELEVEL">     0</i>
  <i type="logical" name="LDAU"> F  </i>
  <i type="int" name="I_CONSTRAINED_M">     0</i>
  <separator name="electronic exchange-correlation" >
   <i type="string" name="GGA">PE</i>
   <i type="int" name="VOSKOWN">     0</i>
   <i type="logical" name="LHFCALC"> F  </i>
   <i type="string" name="PRECFOCK"></i>
   <i type="logical" name="LSYMGRAD"> F  </i>
   <i type="logical" name="LHFONE"> F  </i>
   <i type="logical" name="LRHFCALC"> F  </i>
   <i type="logical" name="LTHOMAS"> F  </i>
   <i type="logical" name="LMODELHF"> F  </i>
   <i name="ENCUT4O">     -1.00000000</i>
   <i type="int" name="EXXOEP">     0</i>
   <i type="int" name="FOURORBIT">     0</i>
   <i name="AEXX">      0.00000000</i>
   <i name="HFALPHA">      0.00000000</i>
   <i name="MCALPHA">      0.00000000</i>
   <i name="ALDAX">      1.00000000</i>
   <i name="AGGAX">      1.00000000</i>
   <i name="ALDAC">      1.00000000</i>
   <i name="AGGAC">      1.00000000</i>
   <i type="int" name="NKREDX">     1</i>
   <i type="int" name="NKREDY">     1</i>
   <i type="int" name="NKREDZ">     1</i>
   <i type="logical" name="SHIFTRED"> F  </i>
   <i type="logical" name="ODDONLY"> F  </i>
   <i type="logical" name="EVENONLY"> F  </i>
   <i type="int" name="LMAXFOCK">     0</i>
   <i type="int" name="NMAXFOCKAE">     0</i>
   <i type="logical" name="LFOCKAEDFT"> F  </i>
   <i name="HFSCREEN">      0.00000000</i>
   <i name="HFSCREENC">      0.00000000</i>
   <i type="int" name="NBANDSGWLOW">     0</i>
  </separator>
  <separator name="vdW DFT" >
   <i type="logical" name="LUSE_VDW"> F  </i>
   <i name="Zab_VDW">     -0.84910000</i>
   <i name="PARAM1">      0.12340000</i>
   <i name="PARAM2">      1.00000000</i>
   <i name="PARAM3">      0.00000000</i>
  </separator>
  <separator name="model GW" >
   <i type="int" name="MODEL_GW">     0</i>
   <i name="MODEL_EPS0">     56.58232271</i>
   <i name="MODEL_ALPHA">      1.00000000</i>
  </separator>
  <separator name="linear response parameters" >
   <i type="logical" name="LEPSILON"> F  </i>
   <i type="logical" name="LRPA"> F  </i>
   <i type="logical" name="LNABLA"> F  </i>
   <i type="logical" name="LVEL"> F  </i>
   <i type="int" name="KINTER">     0</i>
   <i name="CSHIFT">      0.10000000</i>
   <i name="OMEGAMAX">     -1.00000000</i>
   <i name="DEG_THRESHOLD">      0.00200000</i>
   <i name="RTIME">     -0.10000000</i>
   <i name="WPLASMAI">      0.00000000</i>
   <v name="DFIELD">      0.00000000      0.00000000      0.00000000</v>
   <v name="WPLASMA">      0.00000000      0.00000000      0.00000000      0.00000000      0.00000000      0.00000000      0.00000000      0.00000000      0.00000000</v>
  </separator>
  <separator name="orbital magnetization" >
   <i type="logical" name="NUCIND"> F  </i>
   <v name="MAGPOS">      0.00000000      0.00000000      0.00000000</v>
   <i type="logical" name="LNICSALL"> T  </i>
   <i type="logical" name="ORBITALMAG"> F  </i>
   <i type="logical" name="LMAGBLOCH"> F  </i>
   <i type="logical" name="LCHIMAG"> F  </i>
   <i type="logical" name="LGAUGE"> T  </i>
   <i type="int" name="MAGATOM">     0</i>
   <v name="MAGDIPOL">      0.00000000      0.00000000      0.00000000</v>
   <v name="AVECCONST">      0.00000000      0.00000000      0.00000000</v>
  </separator>
  <separator name="response functions" >
   <i type="logical" name="LADDER"> F  </i>
   <i type="logical" name="LRPAFORCE"> F  </i>
   <i type="logical" name="LFXC"> F  </i>
   <i type="logical" name="LHARTREE"> T  </i>
   <i type="int" name="IBSE">     0</i>
   <v type="int" name="KPOINT">    -1     0     0     0</v>
   <i type="logical" name="LTCTE"> F  </i>
   <i type="logical" name="LTETE"> F  </i>
   <i type="logical" name="LTRIPLET"> F  </i>
   <i type="logical" name="LFXCEPS"> F  </i>
   <i type="logical" name="LFXHEG"> F  </i>
   <i type="int" name="NATURALO">     2</i>
   <i type="logical" name="L2ORDER"> F  </i>
   <i type="logical" name="LMP2LT"> F  </i>
   <i type="logical" name="LUSEW"> F  </i>
   <i name="ENCUTGW">     -2.00000000</i>
   <i name="ENCUTGWSOFT">     -2.00000000</i>
   <i name="ENCUTLF">     -1.00000000</i>
   <i type="int" name="LMAXMP2">    -1</i>
   <i name="SCISSOR">      0.00000000</i>
   <i type="int" name="NOMEGA">     0</i>
   <i type="int" name="NOMEGAR">     0</i>
   <i type="int" name="NBANDSGW">    -1</i>
   <i type="int" name="NBANDSO">    -1</i>
   <i type="int" name="NBANDSV">    -1</i>
   <i type="int" name="NELM">   200</i>
   <i type="int" name="NELMHF">     1</i>
   <i type="int" name="DIM">     3</i>
   <i type="int" name="ANTIRES">     0</i>
   <i name="OMEGAMAX">    -30.00000000</i>
   <i name="OMEGAMIN">    -30.00000000</i>
   <i name="OMEGATL">   -200.00000000</i>
   <i type="int" name="OMEGAGRID">   140</i>
   <i name="CSHIFT">     -0.10000000</i>
   <i type="logical" name="SELFENERGY"> F  </i>
   <i type="logical" name="LSPECTRAL"> F  </i>
   <i type="logical" name="LSPECTRALGW"> F  </i>
   <i type="logical" name="LSINGLES"> F  </i>
   <i type="logical" name="LFERMIGW"> F  </i>
   <i type="logical" name="ODDONLYGW"> F  </i>
   <i type="logical" name="EVENONLYGW"> F  </i>
   <i type="int" name="NKREDLFX">     1</i>
   <i type="int" name="NKREDLFY">     1</i>
   <i type="int" name="NKREDLFZ">     1</i>
   <i type="int" name="MAXMEM">  2800</i>
   <i type="int" name="TELESCOPE">     0</i>
   <i type="int" name="TAUPAR">     1</i>
   <i type="int" name="OMEGAPAR">    -1</i>
   <i name="LAMBDA">      1.00000000</i>
  </separator>
  <separator name="External order field" >
   <i name="OFIELD_KAPPA">      0.00000000</i>
   <v name="OFIELD_K">      0.00000000      0.00000000      0.00000000</v>
   <i name="OFIELD_Q6_NEAR">      0.00000000</i>
   <i name="OFIELD_Q6_FAR">      0.00000000</i>
   <i name="OFIELD_A">      0.00000000</i>
  </separator>
  <separator name="solvation model" >
   <i type="logical" name="LSOL"> F  </i>
  </separator>
 </parameters>
 <atominfo>
  <atoms>      90 </atoms>
  <types>       4 </types>
  <array name="atoms" >
   <dimension dim="1">ion</dimension>
   <field type="string">element</field>
   <field type="int">atomtype</field>
   <set>
    <rc><c>H </c><c>   1</c></rc>
    <rc><c>H </c><c>   1</c></rc>
    <rc><c>H </c><c>   1</c></rc>
    <rc><c>H </c><c>   1</c></rc>
    <rc><c>H </c><c>   1</c></rc>
    <rc><c>H </c><c>   1</c></rc>
    <rc><c>H </c><c>   1</c></rc>
    <rc><c>H </c><c>   1</c></rc>
    <rc><c>H </c><c>   1</c></rc>
    <rc><c>H </c><c>   1</c></rc>
    <rc><c>H </c><c>   1</c></rc>
    <rc><c>H </c><c>   1</c></rc>
    <rc><c>H </c><c>   1</c></rc>
    <rc><c>H </c><c>   1</c></rc>
    <rc><c>H </c><c>   1</c></rc>
    <rc><c>H </c><c>   1</c></rc>
    <rc><c>H </c><c>   1</c></rc>
    <rc><c>H </c><c>   1</c></rc>
    <rc><c>H </c><c>   1</c></rc>
    <rc><c>H </c><c>   1</c></rc>
    <rc><c>H </c><c>   1</c></rc>
    <rc><c>H </c><c>   1</c></rc>
    <rc><c>H </c><c>   1</c></rc>
    <rc><c>H </c><c>   1</c></rc>
    <rc><c>H </c><c>   1</c></rc>
    <rc><c>H </c><c>   1</c></rc>
    <rc><c>H </c><c>   1</c></rc>
    <rc><c>H </c><c>   1</c></rc>
    <rc><c>H </c><c>   1</c></rc>
    <rc><c>H </c><c>   1</c></rc>
    <rc><c>C </c><c>   2</c></rc>
    <rc><c>C </c><c>   2</c></rc>
    <rc><c>C </c><c>   2</c></rc>
    <rc><c>C </c><c>   2</c></rc>
    <rc><c>C </c><c>   2</c></rc>
    <rc><c>C </c><c>   2</c></rc>
    <rc><c>C </c><c>   2</c></rc>
    <rc><c>C </c><c>   2</c></rc>
    <rc><c>C </c><c>   2</c></rc>
    <rc><c>C </c><c>   2</c></rc>
    <rc><c>C </c><c>   2</c></rc>
    <rc><c>C </c><c>   2</c></rc>
    <rc><c>C </c><c>   2</c></rc>
    <rc><c>C </c><c>   2</c></rc>
    <rc><c>C </c><c>   2</c></rc>
    <rc><c>C </c><c>   2</c></rc>
    <rc><c>C </c><c>   2</c></rc>
    <rc><c>C </c><c>   2</c></rc>
    <rc><c>C </c><c>   2</c></rc>
    <rc><c>C </c><c>   2</c></rc>
    <rc><c>C </c><c>   2</c></rc>
    <rc><c>C </c><c>   2</c></rc>
    <rc><c>C </c><c>   2</c></rc>
    <rc><c>C </c><c>   2</c></rc>
    <rc><c>C </c><c>   2</c></rc>
    <rc><c>C </c><c>   2</c></rc>
    <rc><c>C </c><c>   2</c></rc>
    <rc><c>C </c><c>   2</c></rc>
    <rc><c>C </c><c>   2</c></rc>
    <rc><c>C </c><c>   2</c></rc>
    <rc><c>C </c><c>   2</c></rc>
    <rc><c>C </c><c>   2</c></rc>
    <rc><c>C </c><c>   2</c></rc>
    <rc><c>C </c><c>   2</c></rc>
    <rc><c>C </c><c>   2</c></rc>
    <rc><c>C </c><c>   2</c></rc>
    <rc><c>O </c><c>   3</c></rc>
    <rc><c>O </c><c>   3</c></rc>
    <rc><c>O </c><c>   3</c></rc>
    <rc><c>O </c><c>   3</c></rc>
    <rc><c>O </c><c>   3</c></rc>
    <rc><c>O </c><c>   3</c></rc>
    <rc><c>O </c><c>   3</c></rc>
    <rc><c>O </c><c>   3</c></rc>
    <rc><c>O </c><c>   3</c></rc>
    <rc><c>O </c><c>   3</c></rc>
    <rc><c>O </c><c>   3</c></rc>
    <rc><c>O </c><c>   3</c></rc>
    <rc><c>N </c><c>   4</c></rc>
    <rc><c>N </c><c>   4</c></rc>
    <rc><c>N </c><c>   4</c></rc>
    <rc><c>N </c><c>   4</c></rc>
    <rc><c>N </c><c>   4</c></rc>
    <rc><c>N </c><c>   4</c></rc>
    <rc><c>N </c><c>   4</c></rc>
    <rc><c>N </c><c>   4</c></rc>
    <rc><c>N </c><c>   4</c></rc>
    <rc><c>N </c><c>   4</c></rc>
    <rc><c>N </c><c>   4</c></rc>
    <rc><c>N </c><c>   4</c></rc>
   </set>
  </array>
  <array name="atomtypes" >
   <dimension dim="1">type</dimension>
   <field type="int">atomspertype</field>
   <field type="string">element</field>
   <field>mass</field>
   <field>valence</field>
   <field type="string">pseudopotential</field>
   <set>
    <rc><c>  30</c><c>H </c><c>      1.00000000</c><c>      1.00000000</c><c>  PAW_PBE H 15Jun2001                   </c></rc>
    <rc><c>  36</c><c>C </c><c>     12.01100000</c><c>      4.00000000</c><c>  PAW_PBE C 08Apr2002                   </c></rc>
    <rc><c>  12</c><c>O </c><c>     16.00000000</c><c>      6.00000000</c><c>  PAW_PBE O 08Apr2002                   </c></rc>
    <rc><c>  12</c><c>N </c><c>     14.00100000</c><c>      5.00000000</c><c>  PAW_PBE N 08Apr2002                   </c></rc>
   </set>
  </array>
 </atominfo>
 <structure name="initialpos" >
  <crystal>
   <varray name="basis" >
    <v>      22.11756890       0.01618011       0.00000000 </v>
    <v>     -11.04456417      19.17881301       0.00000000 </v>
    <v>       0.00000000       0.00000000      20.00000000 </v>
   </varray>
   <i name="volume">   8487.34840634 </i>
   <varray name="rec_basis" >
    <v>       0.04519389       0.02602595       0.00000000 </v>
    <v>      -0.00003813       0.05211891       0.00000000 </v>
    <v>       0.00000000       0.00000000       0.05000000 </v>
   </varray>
  </crystal>
  <varray name="positions" >
   <v>       0.72877066       0.26425124       0.51227485 </v>
   <v>       0.73120656       0.46072083       0.51130600 </v>
   <v>       0.53479947       0.26707807       0.50792517 </v>
   <v>       0.54023577       0.37350914       0.51875752 </v>
   <v>       0.83127160       0.45536496       0.52442453 </v>
   <v>       0.62274945       0.16374774       0.52022821 </v>
   <v>       0.24869550       0.71003219       0.52832119 </v>
   <v>       0.28690585       0.53676413       0.53056979 </v>
   <v>       0.45999773       0.74775682       0.52746778 </v>
   <v>       0.47643870       0.65490686       0.52724602 </v>
   <v>       0.17775292       0.52046641       0.52970358 </v>
   <v>       0.34155160       0.81915653       0.52573344 </v>
   <v>       0.66690327       0.50613787       0.48656255 </v>
   <v>       0.64606918       0.48789280       0.57270573 </v>
   <v>       0.83857915       0.32883121       0.49348754 </v>
   <v>       0.84173326       0.35150221       0.57913146 </v>
   <v>       0.49048891       0.15756867       0.48437845 </v>
   <v>       0.50601231       0.15322258       0.57095752 </v>
   <v>       0.61045913       0.54521152       0.41652694 </v>
   <v>       0.52152890       0.58074968       0.39756981 </v>
   <v>       0.42171910       0.58189426       0.42614600 </v>
   <v>       0.36228346       0.51805272       0.48271966 </v>
   <v>       0.93274784       0.38427264       0.42187035 </v>
   <v>       0.05665531       0.47271164       0.40096293 </v>
   <v>       0.15788614       0.57307434       0.42768961 </v>
   <v>       0.15374191       0.63344899       0.48328623 </v>
   <v>       0.44895824       0.06174753       0.41507137 </v>
   <v>       0.41304963       0.93748799       0.39558195 </v>
   <v>       0.41234300       0.83623706       0.42325337 </v>
   <v>       0.47730549       0.84052791       0.47834726 </v>
   <v>       0.62877202       0.36772115       0.50874599 </v>
   <v>       0.59159148       0.29420411       0.50854700 </v>
   <v>       0.62803832       0.25766728       0.50917414 </v>
   <v>       0.70161387       0.29395189       0.51098884 </v>
   <v>       0.73806176       0.36678237       0.51120201 </v>
   <v>       0.70161643       0.40396878       0.51045038 </v>
   <v>       0.37872860       0.63968548       0.52816177 </v>
   <v>       0.40389019       0.71162943       0.52731277 </v>
   <v>       0.35689045       0.73671983       0.52697828 </v>
   <v>       0.28491585       0.69005459       0.52783937 </v>
   <v>       0.25991978       0.61808761       0.52878341 </v>
   <v>       0.30675308       0.59283474       0.52906730 </v>
   <v>       0.57111935       0.49993309       0.51285486 </v>
   <v>       0.51831953       0.48486193       0.55969290 </v>
   <v>       0.46690831       0.50275312       0.54820430 </v>
   <v>       0.62375371       0.47631441       0.52170623 </v>
   <v>       0.92801808       0.42513209       0.51781481 </v>
   <v>       0.96632665       0.47867126       0.56373374 </v>
   <v>       0.03526506       0.52997197       0.55102686 </v>
   <v>       0.85194981       0.37266934       0.52770177 </v>
   <v>       0.49620158       0.06770361       0.51040075 </v>
   <v>       0.51209085       0.02983032       0.55638761 </v>
   <v>       0.49454224       0.96082882       0.54431126 </v>
   <v>       0.51939439       0.14370287       0.52020425 </v>
   <v>       0.46709180       0.53753797       0.48958446 </v>
   <v>       0.52013305       0.55303503       0.44317942 </v>
   <v>       0.57047607       0.53387415       0.45414563 </v>
   <v>       0.41554797       0.56202255       0.47797971 </v>
   <v>       0.06905679       0.52879429       0.49218870 </v>
   <v>       0.03099783       0.47495432       0.44673593 </v>
   <v>       0.96179212       0.42485145       0.45881511 </v>
   <v>       0.14477427       0.58020049       0.47945800 </v>
   <v>       0.45848061       0.92628242       0.48618452 </v>
   <v>       0.44187674       0.96378454       0.44073719 </v>
   <v>       0.46122917       0.03322785       0.45205868 </v>
   <v>       0.43343235       0.85022711       0.47466551 </v>
   <v>       0.56417248       0.47236583       0.65987656 </v>
   <v>       0.43326614       0.50427152       0.65771679 </v>
   <v>       0.46244429       0.38626487       0.62605107 </v>
   <v>       0.35125129       0.45426127       0.58112577 </v>
   <v>       0.90971148       0.43437194       0.66489677 </v>
   <v>       0.07205974       0.56563198       0.65976535 </v>
   <v>       0.92461732       0.53562098       0.63004979 </v>
   <v>       0.10242807       0.64620119       0.58191378 </v>
   <v>       0.52409150       0.08643858       0.65737869 </v>
   <v>       0.49583719       0.92551712       0.65322194 </v>
   <v>       0.61136286       0.07319395       0.62199278 </v>
   <v>       0.54460722       0.89422968       0.57460819 </v>
   <v>       0.59116244       0.40260984       0.50548498 </v>
   <v>       0.81053382       0.40478949       0.51034475 </v>
   <v>       0.59358205       0.18535366       0.50627109 </v>
   <v>       0.42620076       0.61486706       0.52782776 </v>
   <v>       0.18777140       0.57067568       0.52933114 </v>
   <v>       0.38162925       0.80888409       0.52562942 </v>
   <v>       0.51465490       0.44499065       0.62062479 </v>
   <v>       0.41277216       0.48602185       0.59987169 </v>
   <v>       0.93112598       0.48329125       0.62500852 </v>
   <v>       0.07325774       0.58506871       0.60166867 </v>
   <v>       0.55204805       0.06561593       0.61731991 </v>
   <v>       0.51287465       0.92359457       0.59482877 </v>
  </varray>
 </structure>
 <calculation>
  <scstep>
   <time name="dav">  285.36  288.31</time>
   <time name="total">  285.49  288.45</time>
   <energy>
    <i name="alphaZ">     48.63295679 </i>
    <i name="ewald">  36519.95682327 </i>
    <i name="hartreedc"> -48113.30866048 </i>
    <i name="XCdc">   1161.47354582 </i>
    <i name="pawpsdc">  27520.14496331 </i>
    <i name="pawaedc"> -27585.23219867 </i>
    <i name="eentropy">     -0.00000000 </i>
    <i name="bandstr">  -4181.86204687 </i>
    <i name="atom">  14034.63148519 </i>
    <i name="e_fr_energy">   -595.56313164 </i>
    <i name="e_wo_entrp">   -595.56313164 </i>
    <i name="e_0_energy">   -595.56313164 </i>
   </energy>
  </scstep>
  <scstep>
   <time name="dav">  311.84  315.08</time>
   <time name="total">  311.84  315.08</time>
   <energy>
    <i name="e_fr_energy">   -596.33798823 </i>
    <i name="e_wo_entrp">   -596.33798823 </i>
    <i name="e_0_energy">   -596.33798823 </i>
   </energy>
  </scstep>
  <scstep>
   <time name="dav">  341.54  345.11</time>
   <time name="total">  341.54  345.11</time>
   <energy>
    <i name="e_fr_energy">   -596.35471791 </i>
    <i name="e_wo_entrp">   -596.35471791 </i>
    <i name="e_0_energy">   -596.35471791 </i>
   </energy>
  </scstep>
  <scstep>
   <time name="dav">  315.42  318.69</time>
   <time name="total">  315.42  318.69</time>
   <energy>
    <i name="e_fr_energy">   -596.35511232 </i>
    <i name="e_wo_entrp">   -596.35511232 </i>
    <i name="e_0_energy">   -596.35511232 </i>
   </energy>
  </scstep>
  <scstep>
   <time name="dav">  300.02  303.13</time>
   <time name="total">  300.02  303.13</time>
   <energy>
    <i name="e_fr_energy">   -596.35513077 </i>
    <i name="e_wo_entrp">   -596.35513077 </i>
    <i name="e_0_energy">   -596.35513077 </i>
   </energy>
  </scstep>
  <scstep>
   <time name="dav">  237.91  240.40</time>
   <time name="total">  237.91  240.40</time>
   <energy>
    <i name="alphaZ">     48.63295679 </i>
    <i name="ewald">  36519.95682327 </i>
    <i name="hartreedc"> -48113.30866048 </i>
    <i name="XCdc">   1161.47354582 </i>
    <i name="pawpsdc">  27520.14496331 </i>
    <i name="pawaedc"> -27585.23219867 </i>
    <i name="eentropy">     -0.00000000 </i>
    <i name="bandstr">  -4182.65404654 </i>
    <i name="atom">  14034.63148519 </i>
    <i name="e_fr_energy">   -596.35513130 </i>
    <i name="e_wo_entrp">   -596.35513130 </i>
    <i name="e_0_energy">   -596.35513130 </i>
   </energy>
  </scstep>
  <structure>
   <crystal>
    <varray name="basis" >
     <v>      22.11756890       0.01618011       0.00000000 </v>
     <v>     -11.04456417      19.17881301       0.00000000 </v>
     <v>       0.00000000       0.00000000      20.00000000 </v>
    </varray>
    <i name="volume">   8487.34840634 </i>
    <varray name="rec_basis" >
     <v>       0.04519389       0.02602595       0.00000000 </v>
     <v>      -0.00003813       0.05211891       0.00000000 </v>
     <v>       0.00000000       0.00000000       0.05000000 </v>
    </varray>
   </crystal>
   <varray name="positions" >
    <v>       0.72877066       0.26425124       0.51227485 </v>
    <v>       0.73120656       0.46072083       0.51130600 </v>
    <v>       0.53479947       0.26707807       0.50792517 </v>
    <v>       0.54023577       0.37350914       0.51875752 </v>
    <v>       0.83127160       0.45536496       0.52442453 </v>
    <v>       0.62274945       0.16374774       0.52022821 </v>
    <v>       0.24869550       0.71003219       0.52832119 </v>
    <v>       0.28690585       0.53676413       0.53056979 </v>
    <v>       0.45999773       0.74775682       0.52746778 </v>
    <v>       0.47643870       0.65490686       0.52724602 </v>
    <v>       0.17775292       0.52046641       0.52970358 </v>
    <v>       0.34155160       0.81915653       0.52573344 </v>
    <v>       0.66690327       0.50613787       0.48656255 </v>
    <v>       0.64606918       0.48789280       0.57270573 </v>
    <v>       0.83857915       0.32883121       0.49348754 </v>
    <v>       0.84173326       0.35150221       0.57913146 </v>
    <v>       0.49048891       0.15756867       0.48437845 </v>
    <v>       0.50601231       0.15322258       0.57095752 </v>
    <v>       0.61045913       0.54521152       0.41652694 </v>
    <v>       0.52152890       0.58074968       0.39756981 </v>
    <v>       0.42171910       0.58189426       0.42614600 </v>
    <v>       0.36228346       0.51805272       0.48271966 </v>
    <v>       0.93274784       0.38427264       0.42187035 </v>
    <v>       0.05665531       0.47271164       0.40096293 </v>
    <v>       0.15788614       0.57307434       0.42768961 </v>
    <v>       0.15374191       0.63344899       0.48328623 </v>
    <v>       0.44895824       0.06174753       0.41507137 </v>
    <v>       0.41304963       0.93748799       0.39558195 </v>
    <v>       0.41234300       0.83623706       0.42325337 </v>
    <v>       0.47730549       0.84052791       0.47834726 </v>
    <v>       0.62877202       0.36772115       0.50874599 </v>
    <v>       0.59159148       0.29420411       0.50854700 </v>
    <v>       0.62803832       0.25766728       0.50917414 </v>
    <v>       0.70161387       0.29395189       0.51098884 </v>
    <v>       0.73806176       0.36678237       0.51120201 </v>
    <v>       0.70161643       0.40396878       0.51045038 </v>
    <v>       0.37872860       0.63968548       0.52816177 </v>
    <v>       0.40389019       0.71162943       0.52731277 </v>
    <v>       0.35689045       0.73671983       0.52697828 </v>
    <v>       0.28491585       0.69005459       0.52783937 </v>
    <v>       0.25991978       0.61808761       0.52878341 </v>
    <v>       0.30675308       0.59283474       0.52906730 </v>
    <v>       0.57111935       0.49993309       0.51285486 </v>
    <v>       0.51831953       0.48486193       0.55969290 </v>
    <v>       0.46690831       0.50275312       0.54820430 </v>
    <v>       0.62375371       0.47631441       0.52170623 </v>
    <v>       0.92801808       0.42513209       0.51781481 </v>
    <v>       0.96632665       0.47867126       0.56373374 </v>
    <v>       0.03526506       0.52997197       0.55102686 </v>
    <v>       0.85194981       0.37266934       0.52770177 </v>
    <v>       0.49620158       0.06770361       0.51040075 </v>
    <v>       0.51209085       0.02983032       0.55638761 </v>
    <v>       0.49454224       0.96082882       0.54431126 </v>
    <v>       0.51939439       0.14370287       0.52020425 </v>
    <v>       0.46709180       0.53753797       0.48958446 </v>
    <v>       0.52013305       0.55303503       0.44317942 </v>
    <v>       0.57047607       0.53387415       0.45414563 </v>
    <v>       0.41554797       0.56202255       0.47797971 </v>
    <v>       0.06905679       0.52879429       0.49218870 </v>
    <v>       0.03099783       0.47495432       0.44673593 </v>
    <v>       0.96179212       0.42485145       0.45881511 </v>
    <v>       0.14477427       0.58020049       0.47945800 </v>
    <v>       0.45848061       0.92628242       0.48618452 </v>
    <v>       0.44187674       0.96378454       0.44073719 </v>
    <v>       0.46122917       0.03322785       0.45205868 </v>
    <v>       0.43343235       0.85022711       0.47466551 </v>
    <v>       0.56417248       0.47236583       0.65987656 </v>
    <v>       0.43326614       0.50427152       0.65771679 </v>
    <v>       0.46244429       0.38626487       0.62605107 </v>
    <v>       0.35125129       0.45426127       0.58112577 </v>
    <v>       0.90971148       0.43437194       0.66489677 </v>
    <v>       0.07205974       0.56563198       0.65976535 </v>
    <v>       0.92461732       0.53562098       0.63004979 </v>
    <v>       0.10242807       0.64620119       0.58191378 </v>
    <v>       0.52409150       0.08643858       0.65737869 </v>
    <v>       0.49583719       0.92551712       0.65322194 </v>
    <v>       0.61136286       0.07319395       0.62199278 </v>
    <v>       0.54460722       0.89422968       0.57460819 </v>
    <v>       0.59116244       0.40260984       0.50548498 </v>
    <v>       0.81053382       0.40478949       0.51034475 </v>
    <v>       0.59358205       0.18535366       0.50627109 </v>
    <v>       0.42620076       0.61486706       0.52782776 </v>
    <v>       0.18777140       0.57067568       0.52933114 </v>
    <v>       0.38162925       0.80888409       0.52562942 </v>
    <v>       0.51465490       0.44499065       0.62062479 </v>
    <v>       0.41277216       0.48602185       0.59987169 </v>
    <v>       0.93112598       0.48329125       0.62500852 </v>
    <v>       0.07325774       0.58506871       0.60166867 </v>
    <v>       0.55204805       0.06561593       0.61731991 </v>
    <v>       0.51287465       0.92359457       0.59482877 </v>
   </varray>
  </structure>
  <varray name="forces" >
   <v>      -0.00111480       0.00146965       0.00281018 </v>
   <v>      -0.00113247      -0.00105751       0.00222030 </v>
   <v>      -0.00392050       0.00206915       0.00017024 </v>
   <v>      -0.00016784       0.00154009      -0.00057909 </v>
   <v>       0.00195243       0.00203915       0.00365871 </v>
   <v>      -0.00207958      -0.00230242       0.00116172 </v>
   <v>       0.00220025      -0.00087932      -0.00012934 </v>
   <v>       0.00044872       0.00120014      -0.00102530 </v>
   <v>       0.00228256       0.00349345      -0.00200354 </v>
   <v>      -0.00054706       0.00111798      -0.00168256 </v>
   <v>       0.00068951       0.00112757       0.00076776 </v>
   <v>      -0.00085856      -0.00200104      -0.00129396 </v>
   <v>      -0.00222714      -0.00179814       0.00309245 </v>
   <v>      -0.00177649       0.00079954      -0.00257061 </v>
   <v>       0.00231246      -0.00271500       0.00110436 </v>
   <v>      -0.00093867      -0.00103695      -0.00052441 </v>
   <v>       0.00179920       0.00158153       0.00201701 </v>
   <v>      -0.00284941       0.00109376      -0.00097122 </v>
   <v>       0.00204006       0.00144087       0.00013768 </v>
   <v>       0.00137263       0.00241822      -0.00391185 </v>
   <v>      -0.00117295       0.00042721       0.00046128 </v>
   <v>       0.00376907       0.00161152      -0.00152431 </v>
   <v>       0.00054729      -0.00140952       0.00084969 </v>
   <v>       0.00212417      -0.00129730      -0.00190543 </v>
   <v>       0.00169492      -0.00266000      -0.00103598 </v>
   <v>       0.00157689      -0.00189853      -0.00029898 </v>
   <v>       0.00350466       0.00190482       0.00142335 </v>
   <v>       0.00140095       0.00436794       0.00119916 </v>
   <v>      -0.00366341       0.00287436       0.00174263 </v>
   <v>      -0.00251015       0.00157182      -0.00153269 </v>
   <v>       0.00276298      -0.00412004       0.00073901 </v>
   <v>       0.00166878       0.00256903       0.00207614 </v>
   <v>       0.00305517       0.00649790       0.00029327 </v>
   <v>      -0.00178665      -0.00509705       0.00244031 </v>
   <v>       0.00122053      -0.00113132       0.00071781 </v>
   <v>      -0.00546828       0.00313319       0.00211012 </v>
   <v>      -0.00206407       0.00236755      -0.00322824 </v>
   <v>      -0.00233832      -0.00180499      -0.00036211 </v>
   <v>      -0.00240453       0.00554130      -0.00132404 </v>
   <v>      -0.00150668      -0.00491888      -0.00214054 </v>
   <v>      -0.00170489      -0.00040388      -0.00020504 </v>
   <v>      -0.00105242      -0.00111924       0.00000068 </v>
   <v>       0.00357605      -0.00119481       0.00338285 </v>
   <v>       0.00032961       0.00298328      -0.00242704 </v>
   <v>      -0.00428279      -0.00169837       0.00436713 </v>
   <v>       0.00402847       0.00266883      -0.00014430 </v>
   <v>       0.00184209       0.00027060      -0.00141167 </v>
   <v>       0.00426199      -0.00227074      -0.00318837 </v>
   <v>      -0.00067029       0.00050732       0.00133504 </v>
   <v>       0.00433185       0.00106942       0.00050601 </v>
   <v>      -0.00285460      -0.00400740      -0.00049274 </v>
   <v>      -0.00148984       0.00373256       0.00076973 </v>
   <v>      -0.00376429       0.00181333      -0.00315155 </v>
   <v>      -0.00229695      -0.00426487       0.00172805 </v>
   <v>      -0.00375191       0.00096537       0.00494511 </v>
   <v>      -0.00460295      -0.00003107       0.00456405 </v>
   <v>       0.00313966      -0.00003976       0.00112362 </v>
   <v>      -0.00180970      -0.00379437      -0.00384927 </v>
   <v>       0.00178750      -0.00019204       0.00526580 </v>
   <v>       0.00120079      -0.00034968       0.00098136 </v>
   <v>      -0.00062006      -0.00391169       0.00344084 </v>
   <v>       0.00100794      -0.00065481       0.00007612 </v>
   <v>       0.00111850      -0.00048289      -0.00184101 </v>
   <v>      -0.00062326      -0.00082599       0.00022881 </v>
   <v>       0.00018914      -0.00053581      -0.00164389 </v>
   <v>      -0.00229321      -0.00062248      -0.00114566 </v>
   <v>      -0.00302926      -0.00215095      -0.00093037 </v>
   <v>      -0.00276268      -0.00167617      -0.00527444 </v>
   <v>      -0.00145590      -0.00357263      -0.00292352 </v>
   <v>       0.00117278       0.00107584       0.00105254 </v>
   <v>      -0.00061998       0.00171185       0.00098678 </v>
   <v>       0.00232796      -0.00093289       0.00142863 </v>
   <v>      -0.00194050      -0.00113981      -0.00043017 </v>
   <v>       0.00137787       0.00008638      -0.00130614 </v>
   <v>       0.00063933      -0.00251144      -0.00369936 </v>
   <v>      -0.00263672       0.00198251       0.00108614 </v>
   <v>       0.00617360      -0.00361936      -0.00177929 </v>
   <v>       0.00579080      -0.00202950      -0.00170368 </v>
   <v>      -0.00395818       0.00407388       0.00094392 </v>
   <v>      -0.00133783      -0.00468629      -0.00217373 </v>
   <v>       0.00186200       0.00184084      -0.00046756 </v>
   <v>       0.00497304       0.00364795      -0.00463568 </v>
   <v>      -0.00317989       0.00225060       0.00050243 </v>
   <v>       0.00092312      -0.00144405      -0.00145815 </v>
   <v>       0.00345060      -0.00208537      -0.00176164 </v>
   <v>       0.00568645       0.00217307       0.00052458 </v>
   <v>       0.00167117      -0.00165328       0.00122339 </v>
   <v>       0.00021157      -0.00191901      -0.00154532 </v>
   <v>      -0.00412728       0.00423767       0.00245447 </v>
   <v>      -0.00410417       0.00059960       0.00352253 </v>
  </varray>
  <varray name="stress" >
   <v>       0.28415351      -0.02872152      -0.01331307 </v>
   <v>      -0.02872151       0.23484353       0.00889429 </v>
   <v>      -0.01331307       0.00889429      -0.33572684 </v>
  </varray>
  <energy>
   <i name="e_fr_energy">   -598.44633786 </i>
   <i name="e_wo_entrp">   -598.44633786 </i>
   <i name="e_0_energy">     -0.00000000 </i>
  </energy>
  <time name="totalsc"> 2113.47 2136.26</time>
  <eigenvalues>
   <array>
    <dimension dim="1">band</dimension>
    <dimension dim="2">kpoint</dimension>
    <dimension dim="3">spin</dimension>
    <field>eigene</field>
    <field>occ</field>
    <set>
     <set comment="spin 1">
      <set comment="kpoint 1">
       <r>  -30.9557    1.0000 </r>
       <r>  -30.9384    1.0000 </r>
       <r>  -30.9350    1.0000 </r>
       <r>  -30.7673    1.0000 </r>
       <r>  -30.7523    1.0000 </r>
       <r>  -30.7480    1.0000 </r>
       <r>  -26.5629    1.0000 </r>
       <r>  -26.5473    1.0000 </r>
       <r>  -26.5454    1.0000 </r>
       <r>  -26.4547    1.0000 </r>
       <r>  -26.4415    1.0000 </r>
       <r>  -26.4382    1.0000 </r>
       <r>  -23.5176    1.0000 </r>
       <r>  -23.4521    1.0000 </r>
       <r>  -23.3498    1.0000 </r>
       <r>  -23.3447    1.0000 </r>
       <r>  -23.2361    1.0000 </r>
       <r>  -23.2326    1.0000 </r>
       <r>  -22.6174    1.0000 </r>
       <r>  -22.5302    1.0000 </r>
       <r>  -22.5232    1.0000 </r>
       <r>  -20.8575    1.0000 </r>
       <r>  -20.4822    1.0000 </r>
       <r>  -20.4754    1.0000 </r>
       <r>  -20.4746    1.0000 </r>
       <r>  -20.3684    1.0000 </r>
       <r>  -20.3599    1.0000 </r>
       <r>  -20.1469    1.0000 </r>
       <r>  -19.7488    1.0000 </r>
       <r>  -18.6422    1.0000 </r>
       <r>  -18.6354    1.0000 </r>
       <r>  -18.5753    1.0000 </r>
       <r>  -18.5701    1.0000 </r>
       <r>  -18.3836    1.0000 </r>
       <r>  -17.6856    1.0000 </r>
       <r>  -17.6358    1.0000 </r>
       <r>  -17.6328    1.0000 </r>
       <r>  -17.1389    1.0000 </r>
       <r>  -17.1366    1.0000 </r>
       <r>  -16.8951    1.0000 </r>
       <r>  -16.8408    1.0000 </r>
       <r>  -16.8349    1.0000 </r>
       <r>  -16.2716    1.0000 </r>
       <r>  -16.2636    1.0000 </r>
       <r>  -16.2567    1.0000 </r>
       <r>  -15.0702    1.0000 </r>
       <r>  -15.0594    1.0000 </r>
       <r>  -14.9881    1.0000 </r>
       <r>  -14.8365    1.0000 </r>
       <r>  -14.8316    1.0000 </r>
       <r>  -14.8112    1.0000 </r>
       <r>  -14.4979    1.0000 </r>
       <r>  -14.4956    1.0000 </r>
       <r>  -14.3793    1.0000 </r>
       <r>  -14.3753    1.0000 </r>
       <r>  -13.7733    1.0000 </r>
       <r>  -13.7145    1.0000 </r>
       <r>  -13.7090    1.0000 </r>
       <r>  -13.7063    1.0000 </r>
       <r>  -13.5567    1.0000 </r>
       <r>  -13.3334    1.0000 </r>
       <r>  -13.3258    1.0000 </r>
       <r>  -13.2789    1.0000 </r>
       <r>  -13.2749    1.0000 </r>
       <r>  -13.2243    1.0000 </r>
       <r>  -13.1438    1.0000 </r>
       <r>  -12.8020    1.0000 </r>
       <r>  -12.7896    1.0000 </r>
       <r>  -12.7857    1.0000 </r>
       <r>  -12.5838    1.0000 </r>
       <r>  -12.5517    1.0000 </r>
       <r>  -12.5445    1.0000 </r>
       <r>  -12.4711    1.0000 </r>
       <r>  -12.4459    1.0000 </r>
       <r>  -12.4365    1.0000 </r>
       <r>  -12.4274    1.0000 </r>
       <r>  -12.2817    1.0000 </r>
       <r>  -12.1171    1.0000 </r>
       <r>  -12.1098    1.0000 </r>
       <r>  -11.9335    1.0000 </r>
       <r>  -11.9317    1.0000 </r>
       <r>  -11.8999    1.0000 </r>
       <r>  -11.7120    1.0000 </r>
       <r>  -11.7053    1.0000 </r>
       <r>  -11.6831    1.0000 </r>
       <r>  -11.5375    1.0000 </r>
       <r>  -11.4642    1.0000 </r>
       <r>  -11.3986    1.0000 </r>
       <r>  -11.3918    1.0000 </r>
       <r>  -11.1176    1.0000 </r>
       <r>  -11.1134    1.0000 </r>
       <r>  -10.8940    1.0000 </r>
       <r>  -10.8880    1.0000 </r>
       <r>  -10.7476    1.0000 </r>
       <r>  -10.5912    1.0000 </r>
       <r>  -10.4415    1.0000 </r>
       <r>  -10.4400    1.0000 </r>
       <r>  -10.3308    1.0000 </r>
       <r>  -10.3144    1.0000 </r>
       <r>   -9.9946    1.0000 </r>
       <r>   -9.9327    1.0000 </r>
       <r>   -9.7323    1.0000 </r>
       <r>   -9.7302    1.0000 </r>
       <r>   -9.6937    1.0000 </r>
       <r>   -9.6899    1.0000 </r>
       <r>   -9.6810    1.0000 </r>
       <r>   -9.5999    1.0000 </r>
       <r>   -9.4811    1.0000 </r>
       <r>   -9.4781    1.0000 </r>
       <r>   -9.4293    1.0000 </r>
       <r>   -9.1606    1.0000 </r>
       <r>   -9.0707    1.0000 </r>
       <r>   -9.0650    1.0000 </r>
       <r>   -8.8634    1.0000 </r>
       <r>   -8.7541    1.0000 </r>
       <r>   -8.6360    1.0000 </r>
       <r>   -8.6331    1.0000 </r>
       <r>   -8.4382    1.0000 </r>
       <r>   -8.4361    1.0000 </r>
       <r>   -7.8163    1.0000 </r>
       <r>   -7.8076    1.0000 </r>
       <r>   -7.7650    1.0000 </r>
       <r>   -7.7004    1.0000 </r>
       <r>   -7.6948    1.0000 </r>
       <r>   -7.6855    1.0000 </r>
       <r>   -7.6094    1.0000 </r>
       <r>   -7.5997    1.0000 </r>
       <r>   -7.5871    1.0000 </r>
       <r>   -7.4572    1.0000 </r>
       <r>   -7.4525    1.0000 </r>
       <r>   -7.3838    1.0000 </r>
       <r>   -7.3752    1.0000 </r>
       <r>   -7.2446    1.0000 </r>
       <r>   -7.1922    1.0000 </r>
       <r>   -7.1509    1.0000 </r>
       <r>   -7.1430    1.0000 </r>
       <r>   -7.0757    1.0000 </r>
       <r>   -7.0710    1.0000 </r>
       <r>   -7.0300    1.0000 </r>
       <r>   -6.9783    1.0000 </r>
       <r>   -6.9707    1.0000 </r>
       <r>   -6.6090    1.0000 </r>
       <r>   -6.5716    1.0000 </r>
       <r>   -6.5649    1.0000 </r>
       <r>   -6.4001    1.0000 </r>
       <r>   -6.3908    1.0000 </r>
       <r>   -6.3866    1.0000 </r>
       <r>   -5.4190    1.0000 </r>
       <r>   -5.2029    1.0000 </r>
       <r>   -4.6760    1.0000 </r>
       <r>   -4.6708    1.0000 </r>
       <r>   -4.3401    1.0000 </r>
       <r>   -4.3323    1.0000 </r>
       <r>   -3.3665    0.0000 </r>
       <r>   -3.3605    0.0000 </r>
       <r>   -3.3573    0.0000 </r>
       <r>   -3.2157    0.0000 </r>
       <r>   -3.2009    0.0000 </r>
       <r>   -3.1970    0.0000 </r>
       <r>   -1.9337    0.0000 </r>
       <r>   -1.9207    0.0000 </r>
       <r>   -1.9153    0.0000 </r>
       <r>   -1.7234    0.0000 </r>
       <r>   -1.7122    0.0000 </r>
       <r>   -1.7059    0.0000 </r>
       <r>   -0.5739    0.0000 </r>
       <r>   -0.5707    0.0000 </r>
       <r>   -0.5303    0.0000 </r>
       <r>   -0.3111    0.0000 </r>
       <r>   -0.3064    0.0000 </r>
       <r>   -0.1666    0.0000 </r>
       <r>   -0.1636    0.0000 </r>
       <r>   -0.1520    0.0000 </r>
       <r>   -0.0607    0.0000 </r>
       <r>   -0.0447    0.0000 </r>
       <r>    0.0603    0.0000 </r>
       <r>    0.1205    0.0000 </r>
       <r>    0.1263    0.0000 </r>
       <r>    0.3251    0.0000 </r>
       <r>    0.4312    0.0000 </r>
       <r>    0.4347    0.0000 </r>
       <r>    0.5535    0.0000 </r>
       <r>    0.6057    0.0000 </r>
       <r>    0.6136    0.0000 </r>
       <r>    0.6684    0.0000 </r>
       <r>    0.7135    0.0000 </r>
       <r>    0.7939    0.0000 </r>
       <r>    0.8856    0.0000 </r>
       <r>    0.8875    0.0000 </r>
       <r>    0.8909    0.0000 </r>
       <r>    0.9915    0.0000 </r>
       <r>    0.9940    0.0000 </r>
       <r>    1.0157    0.0000 </r>
       <r>    1.1165    0.0000 </r>
       <r>    1.1213    0.0000 </r>
       <r>    1.1626    0.0000 </r>
       <r>    1.2033    0.0000 </r>
       <r>    1.2045    0.0000 </r>
       <r>    1.2132    0.0000 </r>
       <r>    1.2481    0.0000 </r>
       <r>    1.2935    0.0000 </r>
       <r>    1.2983    0.0000 </r>
       <r>    1.3084    0.0000 </r>
       <r>    1.3295    0.0000 </r>
       <r>    1.3751    0.0000 </r>
       <r>    1.3778    0.0000 </r>
       <r>    1.4810    0.0000 </r>
       <r>    1.4848    0.0000 </r>
      </set>
      <set comment="kpoint 2">
       <r>  -30.9557    1.0000 </r>
       <r>  -30.9384    1.0000 </r>
       <r>  -30.9350    1.0000 </r>
       <r>  -30.7673    1.0000 </r>
       <r>  -30.7523    1.0000 </r>
       <r>  -30.7480    1.0000 </r>
       <r>  -26.5629    1.0000 </r>
       <r>  -26.5473    1.0000 </r>
       <r>  -26.5454    1.0000 </r>
       <r>  -26.4547    1.0000 </r>
       <r>  -26.4415    1.0000 </r>
       <r>  -26.4382    1.0000 </r>
       <r>  -23.5176    1.0000 </r>
       <r>  -23.4523    1.0000 </r>
       <r>  -23.3498    1.0000 </r>
       <r>  -23.3445    1.0000 </r>
       <r>  -23.2361    1.0000 </r>
       <r>  -23.2327    1.0000 </r>
       <r>  -22.6172    1.0000 </r>
       <r>  -22.5302    1.0000 </r>
       <r>  -22.5234    1.0000 </r>
       <r>  -20.8572    1.0000 </r>
       <r>  -20.4872    1.0000 </r>
       <r>  -20.4806    1.0000 </r>
       <r>  -20.4650    1.0000 </r>
       <r>  -20.3684    1.0000 </r>
       <r>  -20.3599    1.0000 </r>
       <r>  -20.1462    1.0000 </r>
       <r>  -19.7493    1.0000 </r>
       <r>  -18.6422    1.0000 </r>
       <r>  -18.6354    1.0000 </r>
       <r>  -18.5754    1.0000 </r>
       <r>  -18.5703    1.0000 </r>
       <r>  -18.3826    1.0000 </r>
       <r>  -17.6940    1.0000 </r>
       <r>  -17.6348    1.0000 </r>
       <r>  -17.6256    1.0000 </r>
       <r>  -17.1389    1.0000 </r>
       <r>  -17.1368    1.0000 </r>
       <r>  -16.8951    1.0000 </r>
       <r>  -16.8408    1.0000 </r>
       <r>  -16.8350    1.0000 </r>
       <r>  -16.2716    1.0000 </r>
       <r>  -16.2636    1.0000 </r>
       <r>  -16.2567    1.0000 </r>
       <r>  -15.0701    1.0000 </r>
       <r>  -15.0593    1.0000 </r>
       <r>  -14.9882    1.0000 </r>
       <r>  -14.8365    1.0000 </r>
       <r>  -14.8316    1.0000 </r>
       <r>  -14.8113    1.0000 </r>
       <r>  -14.4980    1.0000 </r>
       <r>  -14.4956    1.0000 </r>
       <r>  -14.3794    1.0000 </r>
       <r>  -14.3752    1.0000 </r>
       <r>  -13.7733    1.0000 </r>
       <r>  -13.7149    1.0000 </r>
       <r>  -13.7096    1.0000 </r>
       <r>  -13.7051    1.0000 </r>
       <r>  -13.5568    1.0000 </r>
       <r>  -13.3335    1.0000 </r>
       <r>  -13.3260    1.0000 </r>
       <r>  -13.2793    1.0000 </r>
       <r>  -13.2752    1.0000 </r>
       <r>  -13.2237    1.0000 </r>
       <r>  -13.1437    1.0000 </r>
       <r>  -12.8020    1.0000 </r>
       <r>  -12.7897    1.0000 </r>
       <r>  -12.7856    1.0000 </r>
       <r>  -12.5838    1.0000 </r>
       <r>  -12.5517    1.0000 </r>
       <r>  -12.5446    1.0000 </r>
       <r>  -12.4711    1.0000 </r>
       <r>  -12.4459    1.0000 </r>
       <r>  -12.4368    1.0000 </r>
       <r>  -12.4270    1.0000 </r>
       <r>  -12.2818    1.0000 </r>
       <r>  -12.1171    1.0000 </r>
       <r>  -12.1098    1.0000 </r>
       <r>  -11.9336    1.0000 </r>
       <r>  -11.9323    1.0000 </r>
       <r>  -11.8995    1.0000 </r>
       <r>  -11.7127    1.0000 </r>
       <r>  -11.7060    1.0000 </r>
       <r>  -11.6813    1.0000 </r>
       <r>  -11.5375    1.0000 </r>
       <r>  -11.4643    1.0000 </r>
       <r>  -11.3987    1.0000 </r>
       <r>  -11.3920    1.0000 </r>
       <r>  -11.1174    1.0000 </r>
       <r>  -11.1133    1.0000 </r>
       <r>  -10.8949    1.0000 </r>
       <r>  -10.8883    1.0000 </r>
       <r>  -10.7463    1.0000 </r>
       <r>  -10.5909    1.0000 </r>
       <r>  -10.4415    1.0000 </r>
       <r>  -10.4401    1.0000 </r>
       <r>  -10.3310    1.0000 </r>
       <r>  -10.3150    1.0000 </r>
       <r>   -9.9941    1.0000 </r>
       <r>   -9.9324    1.0000 </r>
       <r>   -9.7327    1.0000 </r>
       <r>   -9.7303    1.0000 </r>
       <r>   -9.6948    1.0000 </r>
       <r>   -9.6896    1.0000 </r>
       <r>   -9.6802    1.0000 </r>
       <r>   -9.5998    1.0000 </r>
       <r>   -9.4812    1.0000 </r>
       <r>   -9.4782    1.0000 </r>
       <r>   -9.4291    1.0000 </r>
       <r>   -9.1605    1.0000 </r>
       <r>   -9.0708    1.0000 </r>
       <r>   -9.0651    1.0000 </r>
       <r>   -8.8632    1.0000 </r>
       <r>   -8.7543    1.0000 </r>
       <r>   -8.6360    1.0000 </r>
       <r>   -8.6330    1.0000 </r>
       <r>   -8.4382    1.0000 </r>
       <r>   -8.4361    1.0000 </r>
       <r>   -7.8163    1.0000 </r>
       <r>   -7.8076    1.0000 </r>
       <r>   -7.7650    1.0000 </r>
       <r>   -7.7004    1.0000 </r>
       <r>   -7.6948    1.0000 </r>
       <r>   -7.6855    1.0000 </r>
       <r>   -7.6094    1.0000 </r>
       <r>   -7.5997    1.0000 </r>
       <r>   -7.5871    1.0000 </r>
       <r>   -7.4572    1.0000 </r>
       <r>   -7.4526    1.0000 </r>
       <r>   -7.3838    1.0000 </r>
       <r>   -7.3752    1.0000 </r>
       <r>   -7.2445    1.0000 </r>
       <r>   -7.1922    1.0000 </r>
       <r>   -7.1509    1.0000 </r>
       <r>   -7.1430    1.0000 </r>
       <r>   -7.0758    1.0000 </r>
       <r>   -7.0711    1.0000 </r>
       <r>   -7.0299    1.0000 </r>
       <r>   -6.9783    1.0000 </r>
       <r>   -6.9708    1.0000 </r>
       <r>   -6.6089    1.0000 </r>
       <r>   -6.5716    1.0000 </r>
       <r>   -6.5650    1.0000 </r>
       <r>   -6.4001    1.0000 </r>
       <r>   -6.3908    1.0000 </r>
       <r>   -6.3866    1.0000 </r>
       <r>   -5.4190    1.0000 </r>
       <r>   -5.2029    1.0000 </r>
       <r>   -4.6760    1.0000 </r>
       <r>   -4.6708    1.0000 </r>
       <r>   -4.3401    1.0000 </r>
       <r>   -4.3323    1.0000 </r>
       <r>   -3.3665    0.0000 </r>
       <r>   -3.3605    0.0000 </r>
       <r>   -3.3573    0.0000 </r>
       <r>   -3.2157    0.0000 </r>
       <r>   -3.2009    0.0000 </r>
       <r>   -3.1971    0.0000 </r>
       <r>   -1.9337    0.0000 </r>
       <r>   -1.9207    0.0000 </r>
       <r>   -1.9153    0.0000 </r>
       <r>   -1.7234    0.0000 </r>
       <r>   -1.7122    0.0000 </r>
       <r>   -1.7059    0.0000 </r>
       <r>   -0.5739    0.0000 </r>
       <r>   -0.5707    0.0000 </r>
       <r>   -0.5302    0.0000 </r>
       <r>   -0.3113    0.0000 </r>
       <r>   -0.3068    0.0000 </r>
       <r>   -0.1679    0.0000 </r>
       <r>   -0.1636    0.0000 </r>
       <r>   -0.1503    0.0000 </r>
       <r>   -0.0604    0.0000 </r>
       <r>   -0.0445    0.0000 </r>
       <r>    0.0604    0.0000 </r>
       <r>    0.1205    0.0000 </r>
       <r>    0.1264    0.0000 </r>
       <r>    0.3242    0.0000 </r>
       <r>    0.4309    0.0000 </r>
       <r>    0.4347    0.0000 </r>
       <r>    0.5529    0.0000 </r>
       <r>    0.6060    0.0000 </r>
       <r>    0.6129    0.0000 </r>
       <r>    0.6701    0.0000 </r>
       <r>    0.7136    0.0000 </r>
       <r>    0.7940    0.0000 </r>
       <r>    0.8804    0.0000 </r>
       <r>    0.8878    0.0000 </r>
       <r>    0.8961    0.0000 </r>
       <r>    0.9914    0.0000 </r>
       <r>    0.9933    0.0000 </r>
       <r>    1.0165    0.0000 </r>
       <r>    1.1167    0.0000 </r>
       <r>    1.1205    0.0000 </r>
       <r>    1.1626    0.0000 </r>
       <r>    1.2008    0.0000 </r>
       <r>    1.2066    0.0000 </r>
       <r>    1.2142    0.0000 </r>
       <r>    1.2482    0.0000 </r>
       <r>    1.2898    0.0000 </r>
       <r>    1.2952    0.0000 </r>
       <r>    1.3141    0.0000 </r>
       <r>    1.3300    0.0000 </r>
       <r>    1.3756    0.0000 </r>
       <r>    1.3783    0.0000 </r>
       <r>    1.4816    0.0000 </r>
       <r>    1.4854    0.0000 </r>
      </set>
      <set comment="kpoint 3">
       <r>  -30.9557    1.0000 </r>
       <r>  -30.9384    1.0000 </r>
       <r>  -30.9350    1.0000 </r>
       <r>  -30.7673    1.0000 </r>
       <r>  -30.7523    1.0000 </r>
       <r>  -30.7480    1.0000 </r>
       <r>  -26.5629    1.0000 </r>
       <r>  -26.5473    1.0000 </r>
       <r>  -26.5454    1.0000 </r>
       <r>  -26.4547    1.0000 </r>
       <r>  -26.4415    1.0000 </r>
       <r>  -26.4382    1.0000 </r>
       <r>  -23.5174    1.0000 </r>
       <r>  -23.4528    1.0000 </r>
       <r>  -23.3498    1.0000 </r>
       <r>  -23.3438    1.0000 </r>
       <r>  -23.2361    1.0000 </r>
       <r>  -23.2331    1.0000 </r>
       <r>  -22.6168    1.0000 </r>
       <r>  -22.5303    1.0000 </r>
       <r>  -22.5237    1.0000 </r>
       <r>  -20.8563    1.0000 </r>
       <r>  -20.4982    1.0000 </r>
       <r>  -20.4809    1.0000 </r>
       <r>  -20.4554    1.0000 </r>
       <r>  -20.3683    1.0000 </r>
       <r>  -20.3599    1.0000 </r>
       <r>  -20.1441    1.0000 </r>
       <r>  -19.7508    1.0000 </r>
       <r>  -18.6422    1.0000 </r>
       <r>  -18.6353    1.0000 </r>
       <r>  -18.5760    1.0000 </r>
       <r>  -18.5707    1.0000 </r>
       <r>  -18.3797    1.0000 </r>
       <r>  -17.7118    1.0000 </r>
       <r>  -17.6346    1.0000 </r>
       <r>  -17.6086    1.0000 </r>
       <r>  -17.1389    1.0000 </r>
       <r>  -17.1377    1.0000 </r>
       <r>  -16.8950    1.0000 </r>
       <r>  -16.8408    1.0000 </r>
       <r>  -16.8354    1.0000 </r>
       <r>  -16.2716    1.0000 </r>
       <r>  -16.2637    1.0000 </r>
       <r>  -16.2567    1.0000 </r>
       <r>  -15.0698    1.0000 </r>
       <r>  -15.0591    1.0000 </r>
       <r>  -14.9885    1.0000 </r>
       <r>  -14.8364    1.0000 </r>
       <r>  -14.8315    1.0000 </r>
       <r>  -14.8114    1.0000 </r>
       <r>  -14.4981    1.0000 </r>
       <r>  -14.4957    1.0000 </r>
       <r>  -14.3794    1.0000 </r>
       <r>  -14.3750    1.0000 </r>
       <r>  -13.7732    1.0000 </r>
       <r>  -13.7158    1.0000 </r>
       <r>  -13.7103    1.0000 </r>
       <r>  -13.7029    1.0000 </r>
       <r>  -13.5569    1.0000 </r>
       <r>  -13.3336    1.0000 </r>
       <r>  -13.3266    1.0000 </r>
       <r>  -13.2808    1.0000 </r>
       <r>  -13.2757    1.0000 </r>
       <r>  -13.2217    1.0000 </r>
       <r>  -13.1436    1.0000 </r>
       <r>  -12.8021    1.0000 </r>
       <r>  -12.7900    1.0000 </r>
       <r>  -12.7852    1.0000 </r>
       <r>  -12.5837    1.0000 </r>
       <r>  -12.5518    1.0000 </r>
       <r>  -12.5448    1.0000 </r>
       <r>  -12.4710    1.0000 </r>
       <r>  -12.4459    1.0000 </r>
       <r>  -12.4374    1.0000 </r>
       <r>  -12.4257    1.0000 </r>
       <r>  -12.2821    1.0000 </r>
       <r>  -12.1171    1.0000 </r>
       <r>  -12.1096    1.0000 </r>
       <r>  -11.9348    1.0000 </r>
       <r>  -11.9333    1.0000 </r>
       <r>  -11.8984    1.0000 </r>
       <r>  -11.7151    1.0000 </r>
       <r>  -11.7070    1.0000 </r>
       <r>  -11.6765    1.0000 </r>
       <r>  -11.5375    1.0000 </r>
       <r>  -11.4646    1.0000 </r>
       <r>  -11.3991    1.0000 </r>
       <r>  -11.3923    1.0000 </r>
       <r>  -11.1167    1.0000 </r>
       <r>  -11.1129    1.0000 </r>
       <r>  -10.8979    1.0000 </r>
       <r>  -10.8890    1.0000 </r>
       <r>  -10.7428    1.0000 </r>
       <r>  -10.5903    1.0000 </r>
       <r>  -10.4418    1.0000 </r>
       <r>  -10.4403    1.0000 </r>
       <r>  -10.3316    1.0000 </r>
       <r>  -10.3166    1.0000 </r>
       <r>   -9.9927    1.0000 </r>
       <r>   -9.9315    1.0000 </r>
       <r>   -9.7337    1.0000 </r>
       <r>   -9.7303    1.0000 </r>
       <r>   -9.6971    1.0000 </r>
       <r>   -9.6897    1.0000 </r>
       <r>   -9.6781    1.0000 </r>
       <r>   -9.5995    1.0000 </r>
       <r>   -9.4817    1.0000 </r>
       <r>   -9.4785    1.0000 </r>
       <r>   -9.4287    1.0000 </r>
       <r>   -9.1602    1.0000 </r>
       <r>   -9.0710    1.0000 </r>
       <r>   -9.0653    1.0000 </r>
       <r>   -8.8626    1.0000 </r>
       <r>   -8.7548    1.0000 </r>
       <r>   -8.6359    1.0000 </r>
       <r>   -8.6330    1.0000 </r>
       <r>   -8.4382    1.0000 </r>
       <r>   -8.4360    1.0000 </r>
       <r>   -7.8163    1.0000 </r>
       <r>   -7.8076    1.0000 </r>
       <r>   -7.7650    1.0000 </r>
       <r>   -7.7004    1.0000 </r>
       <r>   -7.6949    1.0000 </r>
       <r>   -7.6855    1.0000 </r>
       <r>   -7.6094    1.0000 </r>
       <r>   -7.5997    1.0000 </r>
       <r>   -7.5871    1.0000 </r>
       <r>   -7.4573    1.0000 </r>
       <r>   -7.4526    1.0000 </r>
       <r>   -7.3838    1.0000 </r>
       <r>   -7.3753    1.0000 </r>
       <r>   -7.2442    1.0000 </r>
       <r>   -7.1923    1.0000 </r>
       <r>   -7.1509    1.0000 </r>
       <r>   -7.1430    1.0000 </r>
       <r>   -7.0759    1.0000 </r>
       <r>   -7.0712    1.0000 </r>
       <r>   -7.0296    1.0000 </r>
       <r>   -6.9783    1.0000 </r>
       <r>   -6.9709    1.0000 </r>
       <r>   -6.6088    1.0000 </r>
       <r>   -6.5716    1.0000 </r>
       <r>   -6.5651    1.0000 </r>
       <r>   -6.4001    1.0000 </r>
       <r>   -6.3908    1.0000 </r>
       <r>   -6.3866    1.0000 </r>
       <r>   -5.4190    1.0000 </r>
       <r>   -5.2029    1.0000 </r>
       <r>   -4.6760    1.0000 </r>
       <r>   -4.6708    1.0000 </r>
       <r>   -4.3401    1.0000 </r>
       <r>   -4.3323    1.0000 </r>
       <r>   -3.3665    0.0000 </r>
       <r>   -3.3605    0.0000 </r>
       <r>   -3.3573    0.0000 </r>
       <r>   -3.2157    0.0000 </r>
       <r>   -3.2009    0.0000 </r>
       <r>   -3.1971    0.0000 </r>
       <r>   -1.9336    0.0000 </r>
       <r>   -1.9207    0.0000 </r>
       <r>   -1.9154    0.0000 </r>
       <r>   -1.7234    0.0000 </r>
       <r>   -1.7122    0.0000 </r>
       <r>   -1.7059    0.0000 </r>
       <r>   -0.5739    0.0000 </r>
       <r>   -0.5707    0.0000 </r>
       <r>   -0.5298    0.0000 </r>
       <r>   -0.3120    0.0000 </r>
       <r>   -0.3081    0.0000 </r>
       <r>   -0.1707    0.0000 </r>
       <r>   -0.1633    0.0000 </r>
       <r>   -0.1466    0.0000 </r>
       <r>   -0.0593    0.0000 </r>
       <r>   -0.0441    0.0000 </r>
       <r>    0.0607    0.0000 </r>
       <r>    0.1204    0.0000 </r>
       <r>    0.1266    0.0000 </r>
       <r>    0.3217    0.0000 </r>
       <r>    0.4295    0.0000 </r>
       <r>    0.4348    0.0000 </r>
       <r>    0.5513    0.0000 </r>
       <r>    0.6061    0.0000 </r>
       <r>    0.6121    0.0000 </r>
       <r>    0.6746    0.0000 </r>
       <r>    0.7138    0.0000 </r>
       <r>    0.7941    0.0000 </r>
       <r>    0.8742    0.0000 </r>
       <r>    0.8876    0.0000 </r>
       <r>    0.9033    0.0000 </r>
       <r>    0.9904    0.0000 </r>
       <r>    0.9922    0.0000 </r>
       <r>    1.0186    0.0000 </r>
       <r>    1.1169    0.0000 </r>
       <r>    1.1188    0.0000 </r>
       <r>    1.1626    0.0000 </r>
       <r>    1.1985    0.0000 </r>
       <r>    1.2069    0.0000 </r>
       <r>    1.2179    0.0000 </r>
       <r>    1.2486    0.0000 </r>
       <r>    1.2793    0.0000 </r>
       <r>    1.2960    0.0000 </r>
       <r>    1.3182    0.0000 </r>
       <r>    1.3342    0.0000 </r>
       <r>    1.3751    0.0000 </r>
       <r>    1.3812    0.0000 </r>
       <r>    1.4833    0.0000 </r>
       <r>    1.4874    0.0000 </r>
      </set>
      <set comment="kpoint 4">
       <r>  -30.9557    1.0000 </r>
       <r>  -30.9384    1.0000 </r>
       <r>  -30.9350    1.0000 </r>
       <r>  -30.7673    1.0000 </r>
       <r>  -30.7523    1.0000 </r>
       <r>  -30.7480    1.0000 </r>
       <r>  -26.5629    1.0000 </r>
       <r>  -26.5473    1.0000 </r>
       <r>  -26.5454    1.0000 </r>
       <r>  -26.4547    1.0000 </r>
       <r>  -26.4415    1.0000 </r>
       <r>  -26.4382    1.0000 </r>
       <r>  -23.5171    1.0000 </r>
       <r>  -23.4536    1.0000 </r>
       <r>  -23.3498    1.0000 </r>
       <r>  -23.3426    1.0000 </r>
       <r>  -23.2361    1.0000 </r>
       <r>  -23.2338    1.0000 </r>
       <r>  -22.6161    1.0000 </r>
       <r>  -22.5303    1.0000 </r>
       <r>  -22.5243    1.0000 </r>
       <r>  -20.8547    1.0000 </r>
       <r>  -20.5100    1.0000 </r>
[...]
       <r>   -29.8396     0.0000    12.0000 </r>
       <r>   -29.7204     0.0000    12.0000 </r>
       <r>   -29.6012     0.0000    12.0000 </r>
       <r>   -29.4820     0.0000    12.0000 </r>
       <r>   -29.3629     0.0000    12.0000 </r>
       <r>   -29.2437     0.0000    12.0000 </r>
       <r>   -29.1245     0.0000    12.0000 </r>
       <r>   -29.0053     0.0000    12.0000 </r>
       <r>   -28.8861     0.0000    12.0000 </r>
       <r>   -28.7669     0.0000    12.0000 </r>
       <r>   -28.6477     0.0000    12.0000 </r>
       <r>   -28.5285     0.0000    12.0000 </r>
       <r>   -28.4093     0.0000    12.0000 </r>
       <r>   -28.2901     0.0000    12.0000 </r>
       <r>   -28.1709     0.0000    12.0000 </r>
       <r>   -28.0517     0.0000    12.0000 </r>
       <r>   -27.9325     0.0000    12.0000 </r>
       <r>   -27.8133     0.0000    12.0000 </r>
       <r>   -27.6941     0.0000    12.0000 </r>
       <r>   -27.5749     0.0000    12.0000 </r>
       <r>   -27.4557     0.0000    12.0000 </r>
       <r>   -27.3366     0.0000    12.0000 </r>
       <r>   -27.2174     0.0000    12.0000 </r>
       <r>   -27.0982     0.0000    12.0000 </r>
       <r>   -26.9790     0.0000    12.0000 </r>
       <r>   -26.8598     0.0000    12.0000 </r>
       <r>   -26.7406     0.0000    12.0000 </r>
       <r>   -26.6214     0.0000    12.0000 </r>
       <r>   -26.5022    50.3380    18.0000 </r>
       <r>   -26.3830    50.3380    24.0000 </r>
       <r>   -26.2638     0.0000    24.0000 </r>
       <r>   -26.1446     0.0000    24.0000 </r>
       <r>   -26.0254     0.0000    24.0000 </r>
       <r>   -25.9062     0.0000    24.0000 </r>
       <r>   -25.7870     0.0000    24.0000 </r>
       <r>   -25.6678     0.0000    24.0000 </r>
       <r>   -25.5486     0.0000    24.0000 </r>
       <r>   -25.4294     0.0000    24.0000 </r>
       <r>   -25.3102     0.0000    24.0000 </r>
       <r>   -25.1911     0.0000    24.0000 </r>
       <r>   -25.0719     0.0000    24.0000 </r>
       <r>   -24.9527     0.0000    24.0000 </r>
       <r>   -24.8335     0.0000    24.0000 </r>
       <r>   -24.7143     0.0000    24.0000 </r>
       <r>   -24.5951     0.0000    24.0000 </r>
       <r>   -24.4759     0.0000    24.0000 </r>
       <r>   -24.3567     0.0000    24.0000 </r>
       <r>   -24.2375     0.0000    24.0000 </r>
       <r>   -24.1183     0.0000    24.0000 </r>
       <r>   -23.9991     0.0000    24.0000 </r>
       <r>   -23.8799     0.0000    24.0000 </r>
       <r>   -23.7607     0.0000    24.0000 </r>
       <r>   -23.6415     0.0000    24.0000 </r>
       <r>   -23.5223     1.1440    24.1364 </r>
       <r>   -23.4031    13.7031    28.0000 </r>
       <r>   -23.2839    33.6255    32.0080 </r>
       <r>   -23.1647    21.8131    36.0000 </r>
       <r>   -23.0456     0.0000    36.0000 </r>
       <r>   -22.9264     0.0000    36.0000 </r>
       <r>   -22.8072     0.0000    36.0000 </r>
       <r>   -22.6880     0.0000    36.0000 </r>
       <r>   -22.5688    17.3746    38.0709 </r>
       <r>   -22.4496    16.7793    42.0000 </r>
       <r>   -22.3304     0.0000    42.0000 </r>
       <r>   -22.2112     0.0000    42.0000 </r>
       <r>   -22.0920     0.0000    42.0000 </r>
       <r>   -21.9728     0.0000    42.0000 </r>
       <r>   -21.8536     0.0000    42.0000 </r>
       <r>   -21.7344     0.0000    42.0000 </r>
       <r>   -21.6152     0.0000    42.0000 </r>
       <r>   -21.4960     0.0000    42.0000 </r>
       <r>   -21.3768     0.0000    42.0000 </r>
       <r>   -21.2576     0.0000    42.0000 </r>
       <r>   -21.1384     0.0000    42.0000 </r>
       <r>   -21.0193     0.0000    42.0000 </r>
       <r>   -20.9001     0.0000    42.0000 </r>
       <r>   -20.7809    12.2669    43.4621 </r>
       <r>   -20.6617     7.9388    44.9463 </r>
       <r>   -20.5425     3.5432    45.6223 </r>
       <r>   -20.4233    21.7286    48.4233 </r>
       <r>   -20.3041    33.5587    54.0000 </r>
       <r>   -20.1849     0.0000    54.0000 </r>
       <r>   -20.0657     5.4006    54.7771 </r>
       <r>   -19.9465     8.1100    56.0000 </r>
       <r>   -19.8273     9.2435    57.1018 </r>
       <r>   -19.7081     5.0338    58.0000 </r>
       <r>   -19.5889     0.0000    58.0000 </r>
       <r>   -19.4697     0.0000    58.0000 </r>
       <r>   -19.3505     0.0000    58.0000 </r>
       <r>   -19.2313     0.0000    58.0000 </r>
       <r>   -19.1121     0.0000    58.0000 </r>
       <r>   -18.9929     0.0000    58.0000 </r>
       <r>   -18.8738     0.0000    58.0000 </r>
       <r>   -18.7546     0.0000    58.0000 </r>
       <r>   -18.6354    17.7411    60.1146 </r>
       <r>   -18.5162    22.3724    66.0000 </r>
       <r>   -18.3970     0.0309    66.0037 </r>
       <r>   -18.2778     3.3428    66.7651 </r>
       <r>   -18.1586     6.4175    67.6983 </r>
       <r>   -18.0394     5.0210    68.5318 </r>
       <r>   -17.9202     2.3696    69.2491 </r>
       <r>   -17.8010     1.8176    69.5833 </r>
       <r>   -17.6818     2.3352    69.9783 </r>
       <r>   -17.5626    19.3051    72.3011 </r>
       <r>   -17.4434     2.1280    72.6870 </r>
       <r>   -17.3242     7.2066    73.6923 </r>
       <r>   -17.2050     7.6092    74.9070 </r>
       <r>   -17.0858    22.3724    78.0000 </r>
       <r>   -16.9666     0.0000    78.0000 </r>
       <r>   -16.8475    29.7862    81.5504 </r>
       <r>   -16.7283     0.0000    84.0000 </r>
       <r>   -16.6091     0.0000    84.0000 </r>
       <r>   -16.4899     0.0000    84.0000 </r>
       <r>   -16.3707     0.0000    84.0000 </r>
       <r>   -16.2515    45.8568    89.4659 </r>
       <r>   -16.1323     0.0000    90.0000 </r>
       <r>   -16.0131     0.0000    90.0000 </r>
       <r>   -15.8939     0.0000    90.0000 </r>
       <r>   -15.7747     0.0000    90.0000 </r>
       <r>   -15.6555     0.0000    90.0000 </r>
       <r>   -15.5363     0.0000    90.0000 </r>
       <r>   -15.4171     0.0000    90.0000 </r>
       <r>   -15.2979     0.0000    90.0000 </r>
       <r>   -15.1787     0.0000    90.0000 </r>
       <r>   -15.0595    14.6279    91.7436 </r>
       <r>   -14.9403    16.7793    96.0000 </r>
       <r>   -14.8211    36.3518   100.3329 </r>
       <r>   -14.7020     0.0000   102.0000 </r>
       <r>   -14.5828     0.0000   102.0000 </r>
       <r>   -14.4636    33.5586   106.0000 </r>
       <r>   -14.3444    33.5206   109.9955 </r>
       <r>   -14.2252     0.0000   110.0000 </r>
       <r>   -14.1060     0.0000   110.0000 </r>
       <r>   -13.9868     0.0000   110.0000 </r>
       <r>   -13.8676     0.0000   110.0000 </r>
       <r>   -13.7484    16.8077   112.0034 </r>
       <r>   -13.6292    22.0031   117.9893 </r>
       <r>   -13.5100    16.7793   120.0000 </r>
       <r>   -13.3908     0.0000   120.0000 </r>
       <r>   -13.2716    47.2247   126.7289 </r>
       <r>   -13.1524    17.2714   130.0587 </r>
       <r>   -13.0332     0.0000   132.0000 </r>
       <r>   -12.9140     0.0000   132.0000 </r>
       <r>   -12.7948    20.3941   134.4309 </r>
       <r>   -12.6757     0.0000   138.0000 </r>
       <r>   -12.5565    28.8465   141.4383 </r>
       <r>   -12.4373    43.2912   149.1601 </r>
       <r>   -12.3181    11.3664   152.0881 </r>
       <r>   -12.1989     0.0000   154.0000 </r>
       <r>   -12.0797    33.4718   157.9896 </r>
       <r>   -11.9605    12.4121   159.4795 </r>
       <r>   -11.8413    16.7793   164.0000 </r>
       <r>   -11.7221    14.7037   165.7526 </r>
       <r>   -11.6029     5.6787   168.7435 </r>
       <r>   -11.4837    34.3114   173.1564 </r>
       <r>   -11.3645    33.5585   178.0000 </r>
       <r>   -11.2453     0.0000   178.0000 </r>
       <r>   -11.1261     0.3415   178.0407 </r>
       <r>   -11.0069    22.6184   183.0293 </r>
       <r>   -10.8877    20.6315   185.7592 </r>
       <r>   -10.7685     0.0013   186.0002 </r>
       <r>   -10.6493     3.9467   186.7704 </r>
       <r>   -10.5302    24.8128   189.9909 </r>
       <r>   -10.4110    30.9977   194.0947 </r>
       <r>   -10.2918    22.9309   197.9999 </r>
       <r>   -10.1726     0.0000   198.0000 </r>
       <r>   -10.0534     0.0000   198.0000 </r>
       <r>    -9.9342     8.9692   199.0691 </r>
       <r>    -9.8150     9.5090   202.0001 </r>
       <r>    -9.6958    48.4777   208.9116 </r>
       <r>    -9.5766    22.3666   213.2993 </r>
       <r>    -9.4574    33.5519   217.9992 </r>
       <r>    -9.3382    11.1862   220.0000 </r>
       <r>    -9.2190     0.0000   220.0000 </r>
       <r>    -9.0998    24.5878   222.9307 </r>
       <r>    -8.9806     0.0000   226.0000 </r>
       <r>    -8.8614     1.8841   226.2246 </r>
       <r>    -8.7422    21.9871   229.9874 </r>
       <r>    -8.6230    29.3273   233.4956 </r>
       <r>    -8.5039     0.0000   234.0000 </r>
       <r>    -8.3847    33.5587   238.0000 </r>
       <r>    -8.2655     0.0000   238.0000 </r>
       <r>    -8.1463     0.0000   238.0000 </r>
       <r>    -8.0271     0.0000   238.0000 </r>
       <r>    -7.9079     0.0000   238.0000 </r>
       <r>    -7.7887    33.5009   241.9931 </r>
       <r>    -7.6695    50.0792   249.9692 </r>
       <r>    -7.5503    50.3380   256.0000 </r>
       <r>    -7.4311    33.5446   259.9983 </r>
       <r>    -7.3119    33.5587   264.0000 </r>
       <r>    -7.1927    27.8903   267.3244 </r>
       <r>    -7.0735    55.4511   274.6095 </r>
       <r>    -6.9543    50.2587   281.9906 </r>
       <r>    -6.8351     0.0000   282.0000 </r>
       <r>    -6.7159     0.0000   282.0000 </r>
       <r>    -6.5967    12.5890   283.5005 </r>
       <r>    -6.4775     0.0000   288.0000 </r>
       <r>    -6.3584    50.3374   293.9999 </r>
       <r>    -6.2392     0.0000   294.0000 </r>
       <r>    -6.1200     0.0000   294.0000 </r>
       <r>    -6.0008     0.0000   294.0000 </r>
       <r>    -5.8816     0.0000   294.0000 </r>
       <r>    -5.7624     0.0000   294.0000 </r>
       <r>    -5.6432     0.0000   294.0000 </r>
       <r>    -5.5240     0.0000   294.0000 </r>
       <r>    -5.4048    16.3675   295.9509 </r>
       <r>    -5.2856     0.0000   296.0000 </r>
       <r>    -5.1664    16.7793   298.0000 </r>
       <r>    -5.0472     0.0000   298.0000 </r>
       <r>    -4.9280     0.0000   298.0000 </r>
       <r>    -4.8088     0.0000   298.0000 </r>
       <r>    -4.6896     0.5031   298.0600 </r>
       <r>    -4.5704     0.0000   302.0000 </r>
       <r>    -4.4512     0.0000   302.0000 </r>
       <r>    -4.3320    23.4024   304.7894 </r>
       <r>    -4.2129     0.0000   306.0000 </r>
       <r>    -4.0937     0.0000   306.0000 </r>
       <r>    -3.9745     0.0000   306.0000 </r>
       <r>    -3.8553     0.0000   306.0000 </r>
       <r>    -3.7361     0.0000   306.0000 </r>
       <r>    -3.6169     0.0000   306.0000 </r>
       <r>    -3.4977     0.0000   306.0000 </r>
       <r>    -3.3785     0.8320   306.0992 </r>
       <r>    -3.2593     0.0000   312.0000 </r>
       <r>    -3.1401    50.3380   318.0000 </r>
       <r>    -3.0209     0.0000   318.0000 </r>
       <r>    -2.9017     0.0000   318.0000 </r>
       <r>    -2.7825     0.0000   318.0000 </r>
       <r>    -2.6633     0.0000   318.0000 </r>
       <r>    -2.5441     0.0000   318.0000 </r>
       <r>    -2.4249     0.0000   318.0000 </r>
       <r>    -2.3057     0.0000   318.0000 </r>
       <r>    -2.1866     0.0000   318.0000 </r>
       <r>    -2.0674     0.0000   318.0000 </r>
       <r>    -1.9482     0.1723   318.0205 </r>
       <r>    -1.8290     0.0000   324.0000 </r>
       <r>    -1.7098    32.0040   327.8147 </r>
       <r>    -1.5906     0.0000   330.0000 </r>
       <r>    -1.4714     0.0000   330.0000 </r>
       <r>    -1.3522     0.0000   330.0000 </r>
       <r>    -1.2330     0.0000   330.0000 </r>
       <r>    -1.1138     0.0000   330.0000 </r>
       <r>    -0.9946     0.0000   330.0000 </r>
       <r>    -0.8754     0.0000   330.0000 </r>
       <r>    -0.7562     0.0000   330.0000 </r>
       <r>    -0.6370     0.0000   330.0000 </r>
       <r>    -0.5178    39.6935   334.7312 </r>
       <r>    -0.3986     0.0007   336.0001 </r>
       <r>    -0.2794    24.0503   340.0000 </r>
       <r>    -0.1602    20.0780   342.3932 </r>
       <r>    -0.0411    24.5792   347.4297 </r>
       <r>     0.0781    18.8139   351.0425 </r>
       <r>     0.1973    20.6945   356.0000 </r>
       <r>     0.3165    18.8362   358.6452 </r>
       <r>     0.4357    16.7739   361.1660 </r>
       <r>     0.5549    16.0290   363.9106 </r>
       <r>     0.6741    15.0511   367.3273 </r>
       <r>     0.7933    30.7012   372.1927 </r>
       <r>     0.9125    45.6728   379.4439 </r>
       <r>     1.0317    41.4254   384.9377 </r>
       <r>     1.1509    32.6871   391.3294 </r>
       <r>     1.2701    48.3925   399.5014 </r>
       <r>     1.3893    46.1352   407.9324 </r>
       <r>     1.5085    36.9662   414.5395 </r>
       <r>     1.6277     0.5593   416.0000 </r>
       <r>     1.7469     0.0000   416.0000 </r>
       <r>     1.8661     0.0000   416.0000 </r>
       <r>     1.9852     0.0000   416.0000 </r>
       <r>     2.1044     0.0000   416.0000 </r>
       <r>     2.2236     0.0000   416.0000 </r>
       <r>     2.3428     0.0000   416.0000 </r>
       <r>     2.4620     0.0000   416.0000 </r>
       <r>     2.5812     0.0000   416.0000 </r>
       <r>     2.7004     0.0000   416.0000 </r>
       <r>     2.8196     0.0000   416.0000 </r>
       <r>     2.9388     0.0000   416.0000 </r>
       <r>     3.0580     0.0000   416.0000 </r>
       <r>     3.1772     0.0000   416.0000 </r>
      </set>
     </set>
    </array>
   </total>
  </dos>
 </calculation>
 <structure name="finalpos" >
  <crystal>
   <varray name="basis" >
    <v>      22.11756890       0.01618011       0.00000000 </v>
    <v>     -11.04456417      19.17881301       0.00000000 </v>
    <v>       0.00000000       0.00000000      20.00000000 </v>
   </varray>
   <i name="volume">   8487.34840634 </i>
   <varray name="rec_basis" >
    <v>       0.04519389       0.02602595       0.00000000 </v>
    <v>      -0.00003813       0.05211891       0.00000000 </v>
    <v>       0.00000000       0.00000000       0.05000000 </v>
   </varray>
  </crystal>
  <varray name="positions" >
   <v>       0.72877066       0.26425124       0.51227485 </v>
   <v>       0.73120656       0.46072083       0.51130600 </v>
   <v>       0.53479947       0.26707807       0.50792517 </v>
   <v>       0.54023577       0.37350914       0.51875752 </v>
   <v>       0.83127160       0.45536496       0.52442453 </v>
   <v>       0.62274945       0.16374774       0.52022821 </v>
   <v>       0.24869550       0.71003219       0.52832119 </v>
   <v>       0.28690585       0.53676413       0.53056979 </v>
   <v>       0.45999773       0.74775682       0.52746778 </v>
   <v>       0.47643870       0.65490686       0.52724602 </v>
   <v>       0.17775292       0.52046641       0.52970358 </v>
   <v>       0.34155160       0.81915653       0.52573344 </v>
   <v>       0.66690327       0.50613787       0.48656255 </v>
   <v>       0.64606918       0.48789280       0.57270573 </v>
   <v>       0.83857915       0.32883121       0.49348754 </v>
   <v>       0.84173326       0.35150221       0.57913146 </v>
   <v>       0.49048891       0.15756867       0.48437845 </v>
   <v>       0.50601231       0.15322258       0.57095752 </v>
   <v>       0.61045913       0.54521152       0.41652694 </v>
   <v>       0.52152890       0.58074968       0.39756981 </v>
   <v>       0.42171910       0.58189426       0.42614600 </v>
   <v>       0.36228346       0.51805272       0.48271966 </v>
   <v>       0.93274784       0.38427264       0.42187035 </v>
   <v>       0.05665531       0.47271164       0.40096293 </v>
   <v>       0.15788614       0.57307434       0.42768961 </v>
   <v>       0.15374191       0.63344899       0.48328623 </v>
   <v>       0.44895824       0.06174753       0.41507137 </v>
   <v>       0.41304963       0.93748799       0.39558195 </v>
   <v>       0.41234300       0.83623706       0.42325337 </v>
   <v>       0.47730549       0.84052791       0.47834726 </v>
   <v>       0.62877202       0.36772115       0.50874599 </v>
   <v>       0.59159148       0.29420411       0.50854700 </v>
   <v>       0.62803832       0.25766728       0.50917414 </v>
   <v>       0.70161387       0.29395189       0.51098884 </v>
   <v>       0.73806176       0.36678237       0.51120201 </v>
   <v>       0.70161643       0.40396878       0.51045038 </v>
   <v>       0.37872860       0.63968548       0.52816177 </v>
   <v>       0.40389019       0.71162943       0.52731277 </v>
   <v>       0.35689045       0.73671983       0.52697828 </v>
   <v>       0.28491585       0.69005459       0.52783937 </v>
   <v>       0.25991978       0.61808761       0.52878341 </v>
   <v>       0.30675308       0.59283474       0.52906730 </v>
   <v>       0.57111935       0.49993309       0.51285486 </v>
   <v>       0.51831953       0.48486193       0.55969290 </v>
   <v>       0.46690831       0.50275312       0.54820430 </v>
   <v>       0.62375371       0.47631441       0.52170623 </v>
   <v>       0.92801808       0.42513209       0.51781481 </v>
   <v>       0.96632665       0.47867126       0.56373374 </v>
   <v>       0.03526506       0.52997197       0.55102686 </v>
   <v>       0.85194981       0.37266934       0.52770177 </v>
   <v>       0.49620158       0.06770361       0.51040075 </v>
   <v>       0.51209085       0.02983032       0.55638761 </v>
   <v>       0.49454224       0.96082882       0.54431126 </v>
   <v>       0.51939439       0.14370287       0.52020425 </v>
   <v>       0.46709180       0.53753797       0.48958446 </v>
   <v>       0.52013305       0.55303503       0.44317942 </v>
   <v>       0.57047607       0.53387415       0.45414563 </v>
   <v>       0.41554797       0.56202255       0.47797971 </v>
   <v>       0.06905679       0.52879429       0.49218870 </v>
   <v>       0.03099783       0.47495432       0.44673593 </v>
   <v>       0.96179212       0.42485145       0.45881511 </v>
   <v>       0.14477427       0.58020049       0.47945800 </v>
   <v>       0.45848061       0.92628242       0.48618452 </v>
   <v>       0.44187674       0.96378454       0.44073719 </v>
   <v>       0.46122917       0.03322785       0.45205868 </v>
   <v>       0.43343235       0.85022711       0.47466551 </v>
   <v>       0.56417248       0.47236583       0.65987656 </v>
   <v>       0.43326614       0.50427152       0.65771679 </v>
   <v>       0.46244429       0.38626487       0.62605107 </v>
   <v>       0.35125129       0.45426127       0.58112577 </v>
   <v>       0.90971148       0.43437194       0.66489677 </v>
   <v>       0.07205974       0.56563198       0.65976535 </v>
   <v>       0.92461732       0.53562098       0.63004979 </v>
   <v>       0.10242807       0.64620119       0.58191378 </v>
   <v>       0.52409150       0.08643858       0.65737869 </v>
   <v>       0.49583719       0.92551712       0.65322194 </v>
   <v>       0.61136286       0.07319395       0.62199278 </v>
   <v>       0.54460722       0.89422968       0.57460819 </v>
   <v>       0.59116244       0.40260984       0.50548498 </v>
   <v>       0.81053382       0.40478949       0.51034475 </v>
   <v>       0.59358205       0.18535366       0.50627109 </v>
   <v>       0.42620076       0.61486706       0.52782776 </v>
   <v>       0.18777140       0.57067568       0.52933114 </v>
   <v>       0.38162925       0.80888409       0.52562942 </v>
   <v>       0.51465490       0.44499065       0.62062479 </v>
   <v>       0.41277216       0.48602185       0.59987169 </v>
   <v>       0.93112598       0.48329125       0.62500852 </v>
   <v>       0.07325774       0.58506871       0.60166867 </v>
   <v>       0.55204805       0.06561593       0.61731991 </v>
   <v>       0.51287465       0.92359457       0.59482877 </v>
  </varray>
 </structure>
</modeling>
