<?xml version="1.0" encoding="ISO-8859-1"?>
<modeling>
 <generator>
  <i name="program" type="string">vasp </i>
  <i name="version" type="string">5.4.4.18Apr17-6-g9f103f2a35  </i>
  <i name="subversion" type="string">(build Jun 07 2020 16:50:00) complex            parallel </i>
  <i name="platform" type="string">LinuxIFC </i>
  <i name="date" type="string">2023 02 14 </i>
  <i name="time" type="string">12:26:01 </i>
 </generator>
 <incar>
  <i type="string" name="SYSTEM">Simulation for cell shape cell volume r</i>
  <i type="int" name="ISTART">     1</i>
  <i type="string" name="PREC">high</i>
  <i type="string" name="ALGO">48</i>
  <i type="int" name="ICHARG">    11</i>
  <i type="int" name="NELM">   200</i>
  <i type="int" name="IBRION">    -1</i>
  <i name="EDIFF">      0.00001000</i>
  <i name="EDIFFG">     -0.01000000</i>
  <i type="int" name="NSW">     0</i>
  <i type="int" name="ISIF">     2</i>
  <i name="ENCUT">    500.00000000</i>
  <i name="POTIM">      0.30000000</i>
  <i type="string" name="LREAL">A</i>
  <i type="int" name="ISMEAR">     0</i>
  <i name="SIGMA">      0.01000000</i>
  <i type="int" name="NWRITE">     0</i>
  <i type="logical" name="LWAVE"> F  </i>
  <i type="logical" name="LCHARG"> F  </i>
  <v type="int" name="KPOINT_BSE">    -1     0     0     0</v>
  <i type="int" name="NELM">   200</i>
  <i type="string" name="GGA">PE</i>
 </incar>
 <structure name="primitive_cell" >
  <crystal>
   <varray name="basis" >
    <v>      29.50172361       0.00000000       0.00000000 </v>
    <v>     -14.75086181      25.54924211       0.00000000 </v>
    <v>       0.00000000       0.00000000      20.00000000 </v>
   </varray>
   <i name="volume">  15074.93358266 </i>
   <varray name="rec_basis" >
    <v>       0.03389632       0.01957005       0.00000000 </v>
    <v>       0.00000000       0.03914010       0.00000000 </v>
    <v>       0.00000000       0.00000000       0.05000000 </v>
   </varray>
  </crystal>
  <varray name="positions" >
   <v>      -0.48709583      -0.12011790      -0.49667201 </v>
   <v>       0.47019227      -0.14159741      -0.49661685 </v>
   <v>       0.44299849      -0.19610100      -0.49697927 </v>
   <v>       0.44325516      -0.11348968      -0.49684085 </v>
   <v>       0.46384403      -0.21789183      -0.49722441 </v>
   <v>       0.47240789      -0.05518422      -0.49740254 </v>
   <v>       0.45517323      -0.08965354      -0.38355447 </v>
   <v>       0.38821032      -0.14159741      -0.49661685 </v>
   <v>       0.38801715      -0.22396570      -0.49723682 </v>
   <v>       0.48643895      -0.02712210      -0.43677105 </v>
   <v>       0.48650834      -0.02698333       0.44254566 </v>
   <v>       0.47570884      -0.04858233       0.39545966 </v>
   <v>       0.47406604      -0.05186791      -0.37589522 </v>
   <v>       0.36090052      -0.19610100      -0.49697927 </v>
   <v>       0.36697793      -0.12011790      -0.49667201 </v>
   <v>      -0.48617624       0.02764752      -0.43677130 </v>
   <v>      -0.48620019       0.02759962       0.44220267 </v>
   <v>       0.35904617      -0.28190766      -0.49762535 </v>
   <v>       0.38709327      -0.30645337      -0.49766350 </v>
   <v>      -0.47237248       0.05525503      -0.49714668 </v>
   <v>       0.31826414      -0.21789183      -0.49722441 </v>
   <v>      -0.47586548       0.04826904      -0.38903156 </v>
   <v>       0.46384403      -0.31826414      -0.49722441 </v>
   <v>      -0.47552752       0.04894496       0.39500135 </v>
   <v>       0.30645337      -0.30645337      -0.49766350 </v>
   <v>      -0.36699917       0.12011472      -0.49718365 </v>
   <v>       0.35904617      -0.35904617      -0.49762535 </v>
   <v>       0.44299849      -0.36090052      -0.49697927 </v>
   <v>      -0.44321807       0.11356387      -0.49706255 </v>
   <v>      -0.38826589       0.14155818      -0.49730961 </v>
   <v>       0.38801715      -0.38801715      -0.49723682 </v>
   <v>       0.28190766      -0.35904617      -0.49762535 </v>
   <v>       0.30645337      -0.38709327      -0.49766350 </v>
   <v>      -0.48709583      -0.36697793      -0.49667201 </v>
   <v>       0.47019227      -0.38821032      -0.49661685 </v>
   <v>      -0.47017594       0.14155818      -0.49730961 </v>
   <v>       0.48711388       0.12011472      -0.49718365 </v>
   <v>       0.21789183      -0.31826414      -0.49722441 </v>
   <v>      -0.36094929       0.19605457      -0.49769490 </v>
   <v>       0.22396570      -0.38801715      -0.49723682 </v>
   <v>       0.36090052      -0.44299849      -0.49697927 </v>
   <v>       0.19610100      -0.36090052      -0.49697927 </v>
   <v>      -0.31831296       0.21784540      -0.49783872 </v>
   <v>       0.44325516      -0.44325516      -0.49684085 </v>
   <v>      -0.44299615       0.19605457      -0.49769490 </v>
   <v>       0.31826414      -0.46384403      -0.49722441 </v>
   <v>      -0.38801896       0.22396207      -0.49787320 </v>
   <v>       0.38821032      -0.47019227      -0.49661685 </v>
   <v>       0.45517323      -0.45517323      -0.38355447 </v>
   <v>       0.19610100      -0.44299849      -0.49697927 </v>
   <v>       0.21789183      -0.46384403      -0.49722441 </v>
   <v>      -0.46384164       0.21784540      -0.49783872 </v>
   <v>       0.14159741      -0.38821032      -0.49661685 </v>
   <v>       0.47240789      -0.47240789      -0.49740254 </v>
   <v>       0.12011790      -0.36697793      -0.49667201 </v>
   <v>       0.36697793       0.48709583      -0.49667201 </v>
   <v>       0.47406604      -0.47406604      -0.37589522 </v>
   <v>       0.47570884      -0.47570884       0.39545966 </v>
   <v>      -0.35905725       0.28188550      -0.49808957 </v>
   <v>       0.48643895      -0.48643895      -0.43677105 </v>
   <v>       0.48650834      -0.48650834       0.44254566 </v>
   <v>       0.14159741      -0.47019227      -0.49661685 </v>
   <v>       0.11348968      -0.44325516      -0.49684085 </v>
   <v>      -0.30644570       0.30644570      -0.49811452 </v>
   <v>      -0.21784540       0.31831296      -0.49783872 </v>
   <v>      -0.38710860       0.30644570      -0.49811452 </v>
   <v>       0.12011790       0.48709583      -0.49667201 </v>
   <v>       0.08965354      -0.45517323      -0.38355447 </v>
   <v>      -0.48617624       0.48617624      -0.43677130 </v>
   <v>      -0.48620019       0.48620019       0.44220267 </v>
   <v>      -0.47237248       0.47237248      -0.49714668 </v>
   <v>       0.05518422      -0.47240789      -0.49740254 </v>
   <v>      -0.47586548       0.47586548      -0.38903156 </v>
   <v>      -0.28188550       0.35905725      -0.49808957 </v>
   <v>      -0.47552752       0.47552752       0.39500135 </v>
   <v>      -0.19605457       0.36094929      -0.49769490 </v>
   <v>       0.05186791      -0.47406604      -0.37589522 </v>
   <v>       0.04858233      -0.47570884       0.39545966 </v>
   <v>      -0.46384164       0.31831296      -0.49783872 </v>
   <v>      -0.35905725       0.35905725      -0.49808957 </v>
   <v>      -0.36699917      -0.48711388      -0.49718365 </v>
   <v>      -0.12011472       0.36699917      -0.49718365 </v>
   <v>      -0.22396207       0.38801896      -0.49787320 </v>
   <v>       0.02712210      -0.48643895      -0.43677105 </v>
   <v>       0.02698333      -0.48650834       0.44254566 </v>
   <v>      -0.30644570       0.38710860      -0.49811452 </v>
   <v>      -0.14155818       0.38826589      -0.49730961 </v>
   <v>      -0.44321807       0.44321807      -0.49706255 </v>
   <v>      -0.44299615       0.36094929      -0.49769490 </v>
   <v>      -0.38801896       0.38801896      -0.49787320 </v>
   <v>      -0.38826589       0.47017594      -0.49730961 </v>
   <v>      -0.02764752       0.48617624      -0.43677130 </v>
   <v>      -0.02759962       0.48620019       0.44220267 </v>
   <v>      -0.19605457       0.44299615      -0.49769490 </v>
   <v>      -0.11356387       0.44321807      -0.49706255 </v>
   <v>      -0.47017594       0.38826589      -0.49730961 </v>
   <v>       0.48711388       0.36699917      -0.49718365 </v>
   <v>      -0.21784540       0.46384164      -0.49783872 </v>
   <v>      -0.04826904       0.47586548      -0.38903156 </v>
   <v>      -0.05525503       0.47237248      -0.49714668 </v>
   <v>      -0.04894496       0.47552752       0.39500135 </v>
   <v>      -0.36094929       0.44299615      -0.49769490 </v>
   <v>      -0.14155818       0.47017594      -0.49730961 </v>
   <v>      -0.31831296       0.46384164      -0.49783872 </v>
   <v>      -0.12011472      -0.48711388      -0.49718365 </v>
  </varray>
 </structure>
 <varray name="primitive_index" >
  <v type="int" >        1 </v>
  <v type="int" >       59 </v>
  <v type="int" >       58 </v>
  <v type="int" >       60 </v>
  <v type="int" >        2 </v>
  <v type="int" >       93 </v>
  <v type="int" >       28 </v>
  <v type="int" >       61 </v>
  <v type="int" >       57 </v>
  <v type="int" >       94 </v>
  <v type="int" >      103 </v>
  <v type="int" >       33 </v>
  <v type="int" >       44 </v>
  <v type="int" >       62 </v>
  <v type="int" >        3 </v>
  <v type="int" >       95 </v>
  <v type="int" >      102 </v>
  <v type="int" >       48 </v>
  <v type="int" >       37 </v>
  <v type="int" >      101 </v>
  <v type="int" >        4 </v>
  <v type="int" >       27 </v>
  <v type="int" >       12 </v>
  <v type="int" >       34 </v>
  <v type="int" >       39 </v>
  <v type="int" >       15 </v>
  <v type="int" >       49 </v>
  <v type="int" >       52 </v>
  <v type="int" >       81 </v>
  <v type="int" >       82 </v>
  <v type="int" >       51 </v>
  <v type="int" >       50 </v>
  <v type="int" >       38 </v>
  <v type="int" >       11 </v>
  <v type="int" >       53 </v>
  <v type="int" >       80 </v>
  <v type="int" >       13 </v>
  <v type="int" >        5 </v>
  <v type="int" >       83 </v>
  <v type="int" >       63 </v>
  <v type="int" >       56 </v>
  <v type="int" >       64 </v>
  <v type="int" >       16 </v>
  <v type="int" >       54 </v>
  <v type="int" >       79 </v>
  <v type="int" >        9 </v>
  <v type="int" >       78 </v>
  <v type="int" >       55 </v>
  <v type="int" >       26 </v>
  <v type="int" >       68 </v>
  <v type="int" >        7 </v>
  <v type="int" >       14 </v>
  <v type="int" >       65 </v>
  <v type="int" >       90 </v>
  <v type="int" >        6 </v>
  <v type="int" >       10 </v>
  <v type="int" >       43 </v>
  <v type="int" >       31 </v>
  <v type="int" >       69 </v>
  <v type="int" >       91 </v>
  <v type="int" >      100 </v>
  <v type="int" >       67 </v>
  <v type="int" >       66 </v>
  <v type="int" >       42 </v>
  <v type="int" >       17 </v>
  <v type="int" >       40 </v>
  <v type="int" >        8 </v>
  <v type="int" >       30 </v>
  <v type="int" >       92 </v>
  <v type="int" >       99 </v>
  <v type="int" >       98 </v>
  <v type="int" >       96 </v>
  <v type="int" >       25 </v>
  <v type="int" >       71 </v>
  <v type="int" >       32 </v>
  <v type="int" >       85 </v>
  <v type="int" >       45 </v>
  <v type="int" >       35 </v>
  <v type="int" >       24 </v>
  <v type="int" >       70 </v>
  <v type="int" >       22 </v>
  <v type="int" >       18 </v>
  <v type="int" >       84 </v>
  <v type="int" >       46 </v>
  <v type="int" >       47 </v>
  <v type="int" >       41 </v>
  <v type="int" >       86 </v>
  <v type="int" >       75 </v>
  <v type="int" >       73 </v>
  <v type="int" >       72 </v>
  <v type="int" >       76 </v>
  <v type="int" >       97 </v>
  <v type="int" >      105 </v>
  <v type="int" >       89 </v>
  <v type="int" >       87 </v>
  <v type="int" >       74 </v>
  <v type="int" >       23 </v>
  <v type="int" >       19 </v>
  <v type="int" >       29 </v>
  <v type="int" >      104 </v>
  <v type="int" >       36 </v>
  <v type="int" >       77 </v>
  <v type="int" >       88 </v>
  <v type="int" >       21 </v>
  <v type="int" >       20 </v>
 </varray>
 <kpoints>
  <generation param="listgenerated">
   <i name="divisions" type="int">      20 </i>
   <v>       0.00000000       0.00000000       0.00000000 </v>
   <v>       0.50000000       0.00000000       0.00000000 </v>
   <v>       0.33333333       0.33333333       0.00000000 </v>
   <v>       0.00000000       0.00000000       0.00000000 </v>
  </generation>
  <varray name="kpointlist" >
   <v>       0.00000000       0.00000000       0.00000000 </v>
   <v>       0.02631579       0.00000000       0.00000000 </v>
   <v>       0.05263158       0.00000000       0.00000000 </v>
   <v>       0.07894737       0.00000000       0.00000000 </v>
   <v>       0.10526316       0.00000000       0.00000000 </v>
   <v>       0.13157895       0.00000000       0.00000000 </v>
   <v>       0.15789474       0.00000000       0.00000000 </v>
   <v>       0.18421053       0.00000000       0.00000000 </v>
   <v>       0.21052632       0.00000000       0.00000000 </v>
   <v>       0.23684211       0.00000000       0.00000000 </v>
   <v>       0.26315789       0.00000000       0.00000000 </v>
   <v>       0.28947368       0.00000000       0.00000000 </v>
   <v>       0.31578947       0.00000000       0.00000000 </v>
   <v>       0.34210526       0.00000000       0.00000000 </v>
   <v>       0.36842105       0.00000000       0.00000000 </v>
   <v>       0.39473684       0.00000000       0.00000000 </v>
   <v>       0.42105263       0.00000000       0.00000000 </v>
   <v>       0.44736842       0.00000000       0.00000000 </v>
   <v>       0.47368421       0.00000000       0.00000000 </v>
   <v>       0.50000000       0.00000000       0.00000000 </v>
   <v>       0.50000000       0.00000000       0.00000000 </v>
   <v>       0.49122807       0.01754386       0.00000000 </v>
   <v>       0.48245614       0.03508772       0.00000000 </v>
   <v>       0.47368421       0.05263158       0.00000000 </v>
   <v>       0.46491228       0.07017544       0.00000000 </v>
   <v>       0.45614035       0.08771930       0.00000000 </v>
   <v>       0.44736842       0.10526316       0.00000000 </v>
   <v>       0.43859649       0.12280702       0.00000000 </v>
   <v>       0.42982456       0.14035088       0.00000000 </v>
   <v>       0.42105263       0.15789474       0.00000000 </v>
   <v>       0.41228070       0.17543860       0.00000000 </v>
   <v>       0.40350877       0.19298246       0.00000000 </v>
   <v>       0.39473684       0.21052632       0.00000000 </v>
   <v>       0.38596491       0.22807018       0.00000000 </v>
   <v>       0.37719298       0.24561404       0.00000000 </v>
   <v>       0.36842105       0.26315789       0.00000000 </v>
   <v>       0.35964912       0.28070175       0.00000000 </v>
   <v>       0.35087719       0.29824561       0.00000000 </v>
   <v>       0.34210526       0.31578947       0.00000000 </v>
   <v>       0.33333333       0.33333333       0.00000000 </v>
   <v>       0.33333333       0.33333333       0.00000000 </v>
   <v>       0.31578947       0.31578947       0.00000000 </v>
   <v>       0.29824561       0.29824561       0.00000000 </v>
   <v>       0.28070175       0.28070175       0.00000000 </v>
   <v>       0.26315789       0.26315789       0.00000000 </v>
   <v>       0.24561404       0.24561404       0.00000000 </v>
   <v>       0.22807018       0.22807018       0.00000000 </v>
   <v>       0.21052632       0.21052632       0.00000000 </v>
   <v>       0.19298246       0.19298246       0.00000000 </v>
   <v>       0.17543860       0.17543860       0.00000000 </v>
   <v>       0.15789474       0.15789474       0.00000000 </v>
   <v>       0.14035088       0.14035088       0.00000000 </v>
   <v>       0.12280702       0.12280702       0.00000000 </v>
   <v>       0.10526316       0.10526316       0.00000000 </v>
   <v>       0.08771930       0.08771930       0.00000000 </v>
   <v>       0.07017544       0.07017544       0.00000000 </v>
   <v>       0.05263158       0.05263158       0.00000000 </v>
   <v>       0.03508772       0.03508772       0.00000000 </v>
   <v>       0.01754386       0.01754386       0.00000000 </v>
   <v>       0.00000000       0.00000000       0.00000000 </v>
  </varray>
  <varray name="weights" >
   <v>       0.01666667 </v>
   <v>       0.01666667 </v>
   <v>       0.01666667 </v>
   <v>       0.01666667 </v>
   <v>       0.01666667 </v>
   <v>       0.01666667 </v>
   <v>       0.01666667 </v>
   <v>       0.01666667 </v>
   <v>       0.01666667 </v>
   <v>       0.01666667 </v>
   <v>       0.01666667 </v>
   <v>       0.01666667 </v>
   <v>       0.01666667 </v>
   <v>       0.01666667 </v>
   <v>       0.01666667 </v>
   <v>       0.01666667 </v>
   <v>       0.01666667 </v>
   <v>       0.01666667 </v>
   <v>       0.01666667 </v>
   <v>       0.01666667 </v>
   <v>       0.01666667 </v>
   <v>       0.01666667 </v>
   <v>       0.01666667 </v>
   <v>       0.01666667 </v>
   <v>       0.01666667 </v>
   <v>       0.01666667 </v>
   <v>       0.01666667 </v>
   <v>       0.01666667 </v>
   <v>       0.01666667 </v>
   <v>       0.01666667 </v>
   <v>       0.01666667 </v>
   <v>       0.01666667 </v>
   <v>       0.01666667 </v>
   <v>       0.01666667 </v>
   <v>       0.01666667 </v>
   <v>       0.01666667 </v>
   <v>       0.01666667 </v>
   <v>       0.01666667 </v>
   <v>       0.01666667 </v>
   <v>       0.01666667 </v>
   <v>       0.01666667 </v>
   <v>       0.01666667 </v>
   <v>       0.01666667 </v>
   <v>       0.01666667 </v>
   <v>       0.01666667 </v>
   <v>       0.01666667 </v>
   <v>       0.01666667 </v>
   <v>       0.01666667 </v>
   <v>       0.01666667 </v>
   <v>       0.01666667 </v>
   <v>       0.01666667 </v>
   <v>       0.01666667 </v>
   <v>       0.01666667 </v>
   <v>       0.01666667 </v>
   <v>       0.01666667 </v>
   <v>       0.01666667 </v>
   <v>       0.01666667 </v>
   <v>       0.01666667 </v>
   <v>       0.01666667 </v>
   <v>       0.01666667 </v>
  </varray>
 </kpoints>
 <parameters>
  <separator name="general" >
   <i type="string" name="SYSTEM">Simulation for cell shape cell volume r</i>
   <i type="logical" name="LCOMPAT"> F  </i>
  </separator>
  <separator name="electronic" >
   <i type="string" name="PREC">high</i>
   <i name="ENMAX">    500.00000000</i>
   <i name="ENAUG">    644.87300000</i>
   <i name="EDIFF">      0.00001000</i>
   <i type="int" name="IALGO">    38</i>
   <i type="int" name="IWAVPR">    10</i>
   <i type="int" name="NBANDS">   224</i>
   <i name="NELECT">    324.00000000</i>
   <i type="int" name="TURBO">     0</i>
   <i type="int" name="IRESTART">     0</i>
   <i type="int" name="NREBOOT">     0</i>
   <i type="int" name="NMIN">     0</i>
   <i name="EREF">      0.00000000</i>
   <separator name="electronic smearing" >
    <i type="int" name="ISMEAR">     0</i>
    <i name="SIGMA">      0.01000000</i>
    <i name="KSPACING">      0.50000000</i>
    <i type="logical" name="KGAMMA"> T  </i>
   </separator>
   <separator name="electronic projectors" >
    <i type="logical" name="LREAL"> T  </i>
    <v name="ROPT">     -0.00040000     -0.00040000     -0.00040000     -0.00040000</v>
    <i type="int" name="LMAXPAW">  -100</i>
    <i type="int" name="LMAXMIX">     2</i>
    <i type="logical" name="NLSPLINE"> F  </i>
   </separator>
   <separator name="electronic startup" >
    <i type="int" name="ISTART">     1</i>
    <i type="int" name="ICHARG">    11</i>
    <i type="int" name="INIWAV">     1</i>
   </separator>
   <separator name="electronic spin" >
    <i type="int" name="ISPIN">     1</i>
    <i type="logical" name="LNONCOLLINEAR"> F  </i>
    <v name="MAGMOM">      1.00000000      1.00000000      1.00000000      1.00000000      1.00000000      1.00000000      1.00000000      1.00000000      1.00000000      1.00000000      1.00000000      1.00000000      1.00000000      1.00000000      1.00000000      1.00000000      1.00000000      1.00000000      1.00000000      1.00000000
      1.00000000      1.00000000      1.00000000      1.00000000      1.00000000      1.00000000      1.00000000      1.00000000      1.00000000      1.00000000      1.00000000      1.00000000      1.00000000      1.00000000      1.00000000      1.00000000      1.00000000      1.00000000      1.00000000      1.00000000
      1.00000000      1.00000000      1.00000000      1.00000000      1.00000000      1.00000000      1.00000000      1.00000000      1.00000000      1.00000000      1.00000000      1.00000000      1.00000000      1.00000000      1.00000000      1.00000000      1.00000000      1.00000000      1.00000000      1.00000000
      1.00000000      1.00000000      1.00000000      1.00000000      1.00000000      1.00000000      1.00000000      1.00000000      1.00000000      1.00000000      1.00000000      1.00000000      1.00000000      1.00000000      1.00000000      1.00000000      1.00000000      1.00000000      1.00000000      1.00000000
      1.00000000      1.00000000      1.00000000      1.00000000      1.00000000      1.00000000      1.00000000      1.00000000      1.00000000      1.00000000      1.00000000      1.00000000      1.00000000      1.00000000      1.00000000      1.00000000      1.00000000      1.00000000      1.00000000      1.00000000
      1.00000000      1.00000000      1.00000000      1.00000000      1.00000000</v>
    <i name="NUPDOWN">     -1.00000000</i>
    <i type="logical" name="LSORBIT"> F  </i>
    <v name="SAXIS">      0.00000000      0.00000000      1.00000000</v>
    <i type="logical" name="LSPIRAL"> F  </i>
    <v name="QSPIRAL">      0.00000000      0.00000000      0.00000000</v>
    <i type="logical" name="LZEROZ"> F  </i>
   </separator>
   <separator name="electronic exchange-correlation" >
    <i type="logical" name="LASPH"> F  </i>
    <i type="logical" name="LMETAGGA"> F  </i>
   </separator>
   <separator name="electronic convergence" >
    <i type="int" name="NELM">   200</i>
    <i type="int" name="NELMDL">     0</i>
    <i type="int" name="NELMIN">     2</i>
    <i name="ENINI">    500.00000000</i>
    <separator name="electronic convergence detail" >
     <i type="logical" name="LDIAG"> T  </i>
     <i type="logical" name="LSUBROT"> F  </i>
     <i name="WEIMIN">      0.00000000</i>
     <i name="EBREAK">      0.00000001</i>
     <i name="DEPER">      0.30000000</i>
     <i type="int" name="NRMM">     4</i>
     <i name="TIME">      0.40000000</i>
    </separator>
   </separator>
   <separator name="electronic mixer" >
    <i name="AMIX">      0.40000000</i>
    <i name="BMIX">      1.00000000</i>
    <i name="AMIN">      0.10000000</i>
    <i name="AMIX_MAG">      1.60000000</i>
    <i name="BMIX_MAG">      1.00000000</i>
    <separator name="electronic mixer details" >
     <i type="int" name="IMIX">     4</i>
     <i type="logical" name="MIXFIRST"> F  </i>
     <i type="int" name="MAXMIX">   -45</i>
     <i name="WC">    100.00000000</i>
     <i type="int" name="INIMIX">     1</i>
     <i type="int" name="MIXPRE">     1</i>
     <i type="int" name="MREMOVE">     5</i>
    </separator>
   </separator>
   <separator name="electronic dipolcorrection" >
    <i type="logical" name="LDIPOL"> F  </i>
    <i type="logical" name="LMONO"> F  </i>
    <i type="int" name="IDIPOL">     0</i>
    <i name="EPSILON">      1.00000000</i>
    <v name="DIPOL">   -100.00000000   -100.00000000   -100.00000000</v>
    <i name="EFIELD">      0.00000000</i>
   </separator>
  </separator>
  <separator name="grids" >
   <i type="int" name="NGX">   216</i>
   <i type="int" name="NGY">   216</i>
   <i type="int" name="NGZ">   150</i>
   <i type="int" name="NGXF">   336</i>
   <i type="int" name="NGYF">   336</i>
   <i type="int" name="NGZF">   224</i>
   <i type="logical" name="ADDGRID"> F  </i>
  </separator>
  <separator name="ionic" >
   <i type="int" name="NSW">     0</i>
   <i type="int" name="IBRION">    -1</i>
   <i type="int" name="MDALGO">     0</i>
   <i type="int" name="ISIF">     2</i>
   <i name="PSTRESS">      0.00000000</i>
   <i name="EDIFFG">     -0.01000000</i>
   <i type="int" name="NFREE">     0</i>
   <i name="POTIM">      0.30000000</i>
   <i name="SMASS">     -3.00000000</i>
   <i name="SCALEE">      1.00000000</i>
  </separator>
  <separator name="ionic md" >
   <i name="TEBEG">      0.00010000</i>
   <i name="TEEND">      0.00010000</i>
   <i type="int" name="NBLOCK">     1</i>
   <i type="int" name="KBLOCK">     1</i>
   <i type="int" name="NPACO">   256</i>
   <i name="APACO">     16.00000000</i>
  </separator>
  <separator name="symmetry" >
   <i type="int" name="ISYM">     2</i>
   <i name="SYMPREC">      0.00001000</i>
  </separator>
  <separator name="dos" >
   <i type="int" name="LORBIT">     0</i>
   <v name="RWIGS">     -1.00000000     -1.00000000     -1.00000000     -1.00000000</v>
   <i type="int" name="NEDOS">   301</i>
   <i name="EMIN">     10.00000000</i>
   <i name="EMAX">    -10.00000000</i>
   <i name="EFERMI">      0.00000000</i>
  </separator>
  <separator name="writing" >
   <i type="int" name="NWRITE">     0</i>
   <i type="logical" name="LWAVE"> F  </i>
   <i type="logical" name="LDOWNSAMPLE"> F  </i>
   <i type="logical" name="LCHARG"> F  </i>
   <i type="logical" name="LPARD"> F  </i>
   <i type="logical" name="LVTOT"> F  </i>
   <i type="logical" name="LVHAR"> F  </i>
   <i type="logical" name="LELF"> F  </i>
   <i type="logical" name="LOPTICS"> F  </i>
   <v name="STM">      0.00000000      0.00000000      0.00000000      0.00000000      0.00000000      0.00000000      0.00000000</v>
  </separator>
  <separator name="performance" >
   <i type="int" name="NPAR">    16</i>
   <i type="int" name="NSIM">     4</i>
   <i type="int" name="NBLK">    -1</i>
   <i type="logical" name="LPLANE"> T  </i>
   <i type="logical" name="LSCALAPACK"> T  </i>
   <i type="logical" name="LSCAAWARE"> F  </i>
   <i type="logical" name="LSCALU"> F  </i>
   <i type="logical" name="LASYNC"> F  </i>
   <i type="logical" name="LORBITALREAL"> F  </i>
  </separator>
  <separator name="miscellaneous" >
   <i type="int" name="IDIOT">     3</i>
   <i type="int" name="ISPECIAL">     0</i>
   <i type="logical" name="LMUSIC"> F  </i>
   <v name="POMASS">      1.00000000     14.00100000     16.00000000     12.01100000</v>
   <v name="DARWINR">      0.00000000      0.00000000      0.00000000      0.00000000</v>
   <v name="DARWINV">      1.00000000      1.00000000      1.00000000      1.00000000</v>
   <i type="logical" name="LCORR"> T  </i>
  </separator>
  <i type="logical" name="GGA_COMPAT"> T  </i>
  <i type="logical" name="LBERRY"> F  </i>
  <i type="int" name="ICORELEVEL">     0</i>
  <i type="logical" name="LDAU"> F  </i>
  <i type="int" name="I_CONSTRAINED_M">     0</i>
  <separator name="electronic exchange-correlation" >
   <i type="string" name="GGA">PE</i>
   <i type="int" name="VOSKOWN">     0</i>
   <i type="logical" name="LHFCALC"> F  </i>
   <i type="string" name="PRECFOCK"></i>
   <i type="logical" name="LSYMGRAD"> F  </i>
   <i type="logical" name="LHFONE"> F  </i>
   <i type="logical" name="LRHFCALC"> F  </i>
   <i type="logical" name="LTHOMAS"> F  </i>
   <i type="logical" name="LMODELHF"> F  </i>
   <i name="ENCUT4O">     -1.00000000</i>
   <i type="int" name="EXXOEP">     0</i>
   <i type="int" name="FOURORBIT">     0</i>
   <i name="AEXX">      0.00000000</i>
   <i name="HFALPHA">      0.00000000</i>
   <i name="MCALPHA">      0.00000000</i>
   <i name="ALDAX">      1.00000000</i>
   <i name="AGGAX">      1.00000000</i>
   <i name="ALDAC">      1.00000000</i>
   <i name="AGGAC">      1.00000000</i>
   <i type="int" name="NKREDX">     1</i>
   <i type="int" name="NKREDY">     1</i>
   <i type="int" name="NKREDZ">     1</i>
   <i type="logical" name="SHIFTRED"> F  </i>
   <i type="logical" name="ODDONLY"> F  </i>
   <i type="logical" name="EVENONLY"> F  </i>
   <i type="int" name="LMAXFOCK">     0</i>
   <i type="int" name="NMAXFOCKAE">     0</i>
   <i type="logical" name="LFOCKAEDFT"> F  </i>
   <i name="HFSCREEN">      0.00000000</i>
   <i name="HFSCREENC">      0.00000000</i>
   <i type="int" name="NBANDSGWLOW">     0</i>
  </separator>
  <separator name="vdW DFT" >
   <i type="logical" name="LUSE_VDW"> F  </i>
   <i name="Zab_VDW">     -0.84910000</i>
   <i name="PARAM1">      0.12340000</i>
   <i name="PARAM2">      1.00000000</i>
   <i name="PARAM3">      0.00000000</i>
  </separator>
  <separator name="model GW" >
   <i type="int" name="MODEL_GW">     0</i>
   <i name="MODEL_EPS0">     86.14247762</i>
   <i name="MODEL_ALPHA">      1.00000000</i>
  </separator>
  <separator name="linear response parameters" >
   <i type="logical" name="LEPSILON"> F  </i>
   <i type="logical" name="LRPA"> F  </i>
   <i type="logical" name="LNABLA"> F  </i>
   <i type="logical" name="LVEL"> F  </i>
   <i type="int" name="KINTER">     0</i>
   <i name="CSHIFT">      0.10000000</i>
   <i name="OMEGAMAX">     -1.00000000</i>
   <i name="DEG_THRESHOLD">      0.00200000</i>
   <i name="RTIME">     -0.10000000</i>
   <i name="WPLASMAI">      0.00000000</i>
   <v name="DFIELD">      0.00000000      0.00000000      0.00000000</v>
   <v name="WPLASMA">      0.00000000      0.00000000      0.00000000      0.00000000      0.00000000      0.00000000      0.00000000      0.00000000      0.00000000</v>
  </separator>
  <separator name="orbital magnetization" >
   <i type="logical" name="NUCIND"> F  </i>
   <v name="MAGPOS">      0.00000000      0.00000000      0.00000000</v>
   <i type="logical" name="LNICSALL"> T  </i>
   <i type="logical" name="ORBITALMAG"> F  </i>
   <i type="logical" name="LMAGBLOCH"> F  </i>
   <i type="logical" name="LCHIMAG"> F  </i>
   <i type="logical" name="LGAUGE"> T  </i>
   <i type="int" name="MAGATOM">     0</i>
   <v name="MAGDIPOL">      0.00000000      0.00000000      0.00000000</v>
   <v name="AVECCONST">      0.00000000      0.00000000      0.00000000</v>
  </separator>
  <separator name="response functions" >
   <i type="logical" name="LADDER"> F  </i>
   <i type="logical" name="LRPAFORCE"> F  </i>
   <i type="logical" name="LFXC"> F  </i>
   <i type="logical" name="LHARTREE"> T  </i>
   <i type="int" name="IBSE">     0</i>
   <v type="int" name="KPOINT">    -1     0     0     0</v>
   <i type="logical" name="LTCTE"> F  </i>
   <i type="logical" name="LTETE"> F  </i>
   <i type="logical" name="LTRIPLET"> F  </i>
   <i type="logical" name="LFXCEPS"> F  </i>
   <i type="logical" name="LFXHEG"> F  </i>
   <i type="int" name="NATURALO">     2</i>
   <i type="logical" name="L2ORDER"> F  </i>
   <i type="logical" name="LMP2LT"> F  </i>
   <i type="logical" name="LUSEW"> F  </i>
   <i name="ENCUTGW">     -2.00000000</i>
   <i name="ENCUTGWSOFT">     -2.00000000</i>
   <i name="ENCUTLF">     -1.00000000</i>
   <i type="int" name="LMAXMP2">    -1</i>
   <i name="SCISSOR">      0.00000000</i>
   <i type="int" name="NOMEGA">     0</i>
   <i type="int" name="NOMEGAR">     0</i>
   <i type="int" name="NBANDSGW">    -1</i>
   <i type="int" name="NBANDSO">    -1</i>
   <i type="int" name="NBANDSV">    -1</i>
   <i type="int" name="NELM">   200</i>
   <i type="int" name="NELMHF">     1</i>
   <i type="int" name="DIM">     3</i>
   <i type="int" name="ANTIRES">     0</i>
   <i name="OMEGAMAX">    -30.00000000</i>
   <i name="OMEGAMIN">    -30.00000000</i>
   <i name="OMEGATL">   -200.00000000</i>
   <i type="int" name="OMEGAGRID">   140</i>
   <i name="CSHIFT">     -0.10000000</i>
   <i type="logical" name="SELFENERGY"> F  </i>
   <i type="logical" name="LSPECTRAL"> F  </i>
   <i type="logical" name="LSPECTRALGW"> F  </i>
   <i type="logical" name="LSINGLES"> F  </i>
   <i type="logical" name="LFERMIGW"> F  </i>
   <i type="logical" name="ODDONLYGW"> F  </i>
   <i type="logical" name="EVENONLYGW"> F  </i>
   <i type="int" name="NKREDLFX">     1</i>
   <i type="int" name="NKREDLFY">     1</i>
   <i type="int" name="NKREDLFZ">     1</i>
   <i type="int" name="MAXMEM">  2800</i>
   <i type="int" name="TELESCOPE">     0</i>
   <i type="int" name="TAUPAR">     1</i>
   <i type="int" name="OMEGAPAR">    -1</i>
   <i name="LAMBDA">      1.00000000</i>
  </separator>
  <separator name="External order field" >
   <i name="OFIELD_KAPPA">      0.00000000</i>
   <v name="OFIELD_K">      0.00000000      0.00000000      0.00000000</v>
   <i name="OFIELD_Q6_NEAR">      0.00000000</i>
   <i name="OFIELD_Q6_FAR">      0.00000000</i>
   <i name="OFIELD_A">      0.00000000</i>
  </separator>
  <separator name="solvation model" >
   <i type="logical" name="LSOL"> F  </i>
  </separator>
 </parameters>
 <atominfo>
  <atoms>     105 </atoms>
  <types>       4 </types>
  <array name="atoms" >
   <dimension dim="1">ion</dimension>
   <field type="string">element</field>
   <field type="int">atomtype</field>
   <set>
    <rc><c>H </c><c>   1</c></rc>
    <rc><c>H </c><c>   1</c></rc>
    <rc><c>H </c><c>   1</c></rc>
    <rc><c>H </c><c>   1</c></rc>
    <rc><c>H </c><c>   1</c></rc>
    <rc><c>H </c><c>   1</c></rc>
    <rc><c>H </c><c>   1</c></rc>
    <rc><c>H </c><c>   1</c></rc>
    <rc><c>H </c><c>   1</c></rc>
    <rc><c>H </c><c>   1</c></rc>
    <rc><c>H </c><c>   1</c></rc>
    <rc><c>H </c><c>   1</c></rc>
    <rc><c>H </c><c>   1</c></rc>
    <rc><c>H </c><c>   1</c></rc>
    <rc><c>H </c><c>   1</c></rc>
    <rc><c>H </c><c>   1</c></rc>
    <rc><c>H </c><c>   1</c></rc>
    <rc><c>H </c><c>   1</c></rc>
    <rc><c>H </c><c>   1</c></rc>
    <rc><c>H </c><c>   1</c></rc>
    <rc><c>H </c><c>   1</c></rc>
    <rc><c>H </c><c>   1</c></rc>
    <rc><c>H </c><c>   1</c></rc>
    <rc><c>H </c><c>   1</c></rc>
    <rc><c>H </c><c>   1</c></rc>
    <rc><c>H </c><c>   1</c></rc>
    <rc><c>H </c><c>   1</c></rc>
    <rc><c>H </c><c>   1</c></rc>
    <rc><c>H </c><c>   1</c></rc>
    <rc><c>H </c><c>   1</c></rc>
    <rc><c>H </c><c>   1</c></rc>
    <rc><c>H </c><c>   1</c></rc>
    <rc><c>H </c><c>   1</c></rc>
    <rc><c>H </c><c>   1</c></rc>
    <rc><c>H </c><c>   1</c></rc>
    <rc><c>H </c><c>   1</c></rc>
    <rc><c>N </c><c>   2</c></rc>
    <rc><c>N </c><c>   2</c></rc>
    <rc><c>N </c><c>   2</c></rc>
    <rc><c>N </c><c>   2</c></rc>
    <rc><c>N </c><c>   2</c></rc>
    <rc><c>N </c><c>   2</c></rc>
    <rc><c>O </c><c>   3</c></rc>
    <rc><c>O </c><c>   3</c></rc>
    <rc><c>O </c><c>   3</c></rc>
    <rc><c>C </c><c>   4</c></rc>
    <rc><c>C </c><c>   4</c></rc>
    <rc><c>C </c><c>   4</c></rc>
    <rc><c>C </c><c>   4</c></rc>
    <rc><c>C </c><c>   4</c></rc>
    <rc><c>C </c><c>   4</c></rc>
    <rc><c>C </c><c>   4</c></rc>
    <rc><c>C </c><c>   4</c></rc>
    <rc><c>C </c><c>   4</c></rc>
    <rc><c>C </c><c>   4</c></rc>
    <rc><c>C </c><c>   4</c></rc>
    <rc><c>C </c><c>   4</c></rc>
    <rc><c>C </c><c>   4</c></rc>
    <rc><c>C </c><c>   4</c></rc>
    <rc><c>C </c><c>   4</c></rc>
    <rc><c>C </c><c>   4</c></rc>
    <rc><c>C </c><c>   4</c></rc>
    <rc><c>C </c><c>   4</c></rc>
    <rc><c>C </c><c>   4</c></rc>
    <rc><c>C </c><c>   4</c></rc>
    <rc><c>C </c><c>   4</c></rc>
    <rc><c>C </c><c>   4</c></rc>
    <rc><c>C </c><c>   4</c></rc>
    <rc><c>C </c><c>   4</c></rc>
    <rc><c>C </c><c>   4</c></rc>
    <rc><c>C </c><c>   4</c></rc>
    <rc><c>C </c><c>   4</c></rc>
    <rc><c>C </c><c>   4</c></rc>
    <rc><c>C </c><c>   4</c></rc>
    <rc><c>C </c><c>   4</c></rc>
    <rc><c>C </c><c>   4</c></rc>
    <rc><c>C </c><c>   4</c></rc>
    <rc><c>C </c><c>   4</c></rc>
    <rc><c>C </c><c>   4</c></rc>
    <rc><c>C </c><c>   4</c></rc>
    <rc><c>C </c><c>   4</c></rc>
    <rc><c>C </c><c>   4</c></rc>
    <rc><c>C </c><c>   4</c></rc>
    <rc><c>C </c><c>   4</c></rc>
    <rc><c>C </c><c>   4</c></rc>
    <rc><c>C </c><c>   4</c></rc>
    <rc><c>C </c><c>   4</c></rc>
    <rc><c>C </c><c>   4</c></rc>
    <rc><c>C </c><c>   4</c></rc>
    <rc><c>C </c><c>   4</c></rc>
    <rc><c>C </c><c>   4</c></rc>
    <rc><c>C </c><c>   4</c></rc>
    <rc><c>C </c><c>   4</c></rc>
    <rc><c>C </c><c>   4</c></rc>
    <rc><c>C </c><c>   4</c></rc>
    <rc><c>C </c><c>   4</c></rc>
    <rc><c>C </c><c>   4</c></rc>
    <rc><c>C </c><c>   4</c></rc>
    <rc><c>C </c><c>   4</c></rc>
    <rc><c>C </c><c>   4</c></rc>
    <rc><c>C </c><c>   4</c></rc>
    <rc><c>C </c><c>   4</c></rc>
    <rc><c>C </c><c>   4</c></rc>
    <rc><c>C </c><c>   4</c></rc>
    <rc><c>C </c><c>   4</c></rc>
   </set>
  </array>
  <array name="atomtypes" >
   <dimension dim="1">type</dimension>
   <field type="int">atomspertype</field>
   <field type="string">element</field>
   <field>mass</field>
   <field>valence</field>
   <field type="string">pseudopotential</field>
   <set>
    <rc><c>  36</c><c>H </c><c>      1.00000000</c><c>      1.00000000</c><c>  PAW_PBE H 15Jun2001                   </c></rc>
    <rc><c>   6</c><c>N </c><c>     14.00100000</c><c>      5.00000000</c><c>  PAW_PBE N 08Apr2002                   </c></rc>
    <rc><c>   3</c><c>O </c><c>     16.00000000</c><c>      6.00000000</c><c>  PAW_PBE O 08Apr2002                   </c></rc>
    <rc><c>  60</c><c>C </c><c>     12.01100000</c><c>      4.00000000</c><c>  PAW_PBE C 08Apr2002                   </c></rc>
   </set>
  </array>
 </atominfo>
 <structure name="initialpos" >
  <crystal>
   <varray name="basis" >
    <v>      29.50172361       0.00000000       0.00000000 </v>
    <v>     -14.75086181      25.54924211       0.00000000 </v>
    <v>       0.00000000       0.00000000      20.00000000 </v>
   </varray>
   <i name="volume">  15074.93358266 </i>
   <varray name="rec_basis" >
    <v>       0.03389632       0.01957005       0.00000000 </v>
    <v>       0.00000000       0.03914010       0.00000000 </v>
    <v>       0.00000000       0.00000000       0.05000000 </v>
   </varray>
  </crystal>
  <varray name="positions" >
   <v>       0.51290417       0.87988210       0.50332799 </v>
   <v>       0.46384403       0.78210817       0.50277559 </v>
   <v>       0.36697793       0.87988210       0.50332799 </v>
   <v>       0.31826414       0.78210817       0.50277559 </v>
   <v>       0.21789183       0.68173586       0.50277559 </v>
   <v>       0.12011790       0.63302207       0.50332799 </v>
   <v>       0.21789183       0.53615597       0.50277559 </v>
   <v>       0.12011790       0.48709583       0.50332799 </v>
   <v>       0.31826414       0.53615597       0.50277559 </v>
   <v>       0.36697793       0.48709583       0.50332799 </v>
   <v>       0.51290417       0.63302207       0.50332799 </v>
   <v>       0.46384403       0.68173586       0.50277559 </v>
   <v>       0.48711388       0.12011472       0.50281635 </v>
   <v>       0.53615836       0.21784540       0.50216128 </v>
   <v>       0.63300083       0.12011472       0.50281635 </v>
   <v>       0.68168704       0.21784540       0.50216128 </v>
   <v>       0.78215460       0.31831296       0.50216128 </v>
   <v>       0.87988528       0.36699917       0.50281635 </v>
   <v>       0.78215460       0.46384164       0.50216128 </v>
   <v>       0.87988528       0.51288612       0.50281635 </v>
   <v>       0.68168704       0.46384164       0.50216128 </v>
   <v>       0.63300083       0.51288612       0.50281635 </v>
   <v>       0.48711388       0.36699917       0.50281635 </v>
   <v>       0.53615836       0.31831296       0.50216128 </v>
   <v>       0.52413452       0.47586548       0.61096844 </v>
   <v>       0.45517323       0.54482677       0.61644553 </v>
   <v>       0.52413452       0.04826904       0.61096844 </v>
   <v>       0.45517323       0.91034646       0.61644553 </v>
   <v>       0.95173096       0.47586548       0.61096844 </v>
   <v>       0.08965354       0.54482677       0.61644553 </v>
   <v>       0.47570884       0.52429116       0.39545966 </v>
   <v>       0.52447248       0.47552752       0.39500135 </v>
   <v>       0.47570884       0.95141767       0.39545966 </v>
   <v>       0.52447248       0.04894496       0.39500135 </v>
   <v>       0.04858233       0.52429116       0.39545966 </v>
   <v>       0.95105504       0.47552752       0.39500135 </v>
   <v>       0.38709327       0.69354663       0.50233650 </v>
   <v>       0.30645337       0.61290673       0.50233650 </v>
   <v>       0.30645337       0.69354663       0.50233650 </v>
   <v>       0.61289140       0.30644570       0.50188548 </v>
   <v>       0.69355430       0.38710860       0.50188548 </v>
   <v>       0.69355430       0.30644570       0.50188548 </v>
   <v>       0.47406604       0.52593396       0.62410478 </v>
   <v>       0.47406604       0.94813209       0.62410478 </v>
   <v>       0.05186791       0.52593396       0.62410478 </v>
   <v>       0.02712210       0.51356105       0.56322895 </v>
   <v>       0.02698333       0.51349166       0.44254566 </v>
   <v>       0.35904617       0.71809234       0.50237465 </v>
   <v>       0.35904617       0.64095383       0.50237465 </v>
   <v>       0.28190766       0.64095383       0.50237465 </v>
   <v>       0.38801715       0.61198285       0.50276318 </v>
   <v>       0.44299849       0.63909948       0.50302073 </v>
   <v>       0.47019227       0.61178968       0.50338315 </v>
   <v>       0.44325516       0.55674484       0.50315915 </v>
   <v>       0.38821032       0.52980773       0.50338315 </v>
   <v>       0.36090052       0.55700151       0.50302073 </v>
   <v>       0.38801715       0.77603430       0.50276318 </v>
   <v>       0.44299849       0.80389900       0.50302073 </v>
   <v>       0.47019227       0.85840259       0.50338315 </v>
   <v>       0.44325516       0.88651032       0.50315915 </v>
   <v>       0.38821032       0.85840259       0.50338315 </v>
   <v>       0.36090052       0.80389900       0.50302073 </v>
   <v>       0.22396570       0.61198285       0.50276318 </v>
   <v>       0.19610100       0.63909948       0.50302073 </v>
   <v>       0.14159741       0.61178968       0.50338315 </v>
   <v>       0.11348968       0.55674484       0.50315915 </v>
   <v>       0.14159741       0.52980773       0.50338315 </v>
   <v>       0.19610100       0.55700151       0.50302073 </v>
   <v>       0.64094275       0.28188550       0.50191043 </v>
   <v>       0.64094275       0.35905725       0.50191043 </v>
   <v>       0.71811450       0.35905725       0.50191043 </v>
   <v>       0.61198104       0.38801896       0.50212680 </v>
   <v>       0.55700385       0.36094929       0.50230510 </v>
   <v>       0.52982406       0.38826589       0.50269039 </v>
   <v>       0.55678193       0.44321807       0.50293745 </v>
   <v>       0.61173411       0.47017594       0.50269039 </v>
   <v>       0.63905071       0.44299615       0.50230510 </v>
   <v>       0.61198104       0.22396207       0.50212680 </v>
   <v>       0.55700385       0.19605457       0.50230510 </v>
   <v>       0.52982406       0.14155818       0.50269039 </v>
   <v>       0.55678193       0.11356387       0.50293745 </v>
   <v>       0.61173411       0.14155818       0.50269039 </v>
   <v>       0.63905071       0.19605457       0.50230510 </v>
   <v>       0.77603793       0.38801896       0.50212680 </v>
   <v>       0.80394543       0.36094929       0.50230510 </v>
   <v>       0.85844182       0.38826589       0.50269039 </v>
   <v>       0.88643613       0.44321807       0.50293745 </v>
   <v>       0.85844182       0.47017594       0.50269039 </v>
   <v>       0.80394543       0.44299615       0.50230510 </v>
   <v>       0.47240789       0.52759211       0.50259746 </v>
   <v>       0.48643895       0.51356105       0.56322895 </v>
   <v>       0.51382376       0.48617624       0.56322870 </v>
   <v>       0.47240789       0.94481578       0.50259746 </v>
   <v>       0.48643895       0.97287790       0.56322895 </v>
   <v>       0.51382376       0.02764752       0.56322870 </v>
   <v>       0.05518422       0.52759211       0.50259746 </v>
   <v>       0.97235248       0.48617624       0.56322870 </v>
   <v>       0.52762752       0.47237248       0.50285332 </v>
   <v>       0.51379981       0.48620019       0.44220267 </v>
   <v>       0.48650834       0.51349166       0.44254566 </v>
   <v>       0.52762752       0.05525503       0.50285332 </v>
   <v>       0.51379981       0.02759962       0.44220267 </v>
   <v>       0.48650834       0.97301667       0.44254566 </v>
   <v>       0.94474497       0.47237248       0.50285332 </v>
   <v>       0.97240038       0.48620019       0.44220267 </v>
  </varray>
 </structure>
 <calculation>
  <scstep>
   <time name="dav">  573.11  579.71</time>
   <time name="total">  573.38  579.98</time>
   <energy>
    <i name="alphaZ">     32.64032665 </i>
    <i name="ewald">  38883.33467657 </i>
    <i name="hartreedc"> -48832.44429740 </i>
    <i name="XCdc">   1127.45660035 </i>
    <i name="pawpsdc">  29718.63671332 </i>
    <i name="pawaedc"> -29774.99787052 </i>
    <i name="eentropy">     -0.00000000 </i>
    <i name="bandstr">  -4059.15673765 </i>
    <i name="atom">  12162.69517650 </i>
    <i name="e_fr_energy">   -741.83541219 </i>
    <i name="e_wo_entrp">   -741.83541219 </i>
    <i name="e_0_energy">   -741.83541219 </i>
   </energy>
  </scstep>
  <scstep>
   <time name="dav">  610.39  617.56</time>
   <time name="total">  610.40  617.57</time>
   <energy>
    <i name="e_fr_energy">   -742.23746563 </i>
    <i name="e_wo_entrp">   -742.23746563 </i>
    <i name="e_0_energy">   -742.23746563 </i>
   </energy>
  </scstep>
  <scstep>
   <time name="dav">  699.29  707.58</time>
   <time name="total">  699.29  707.58</time>
   <energy>
    <i name="e_fr_energy">   -742.24963551 </i>
    <i name="e_wo_entrp">   -742.24963551 </i>
    <i name="e_0_energy">   -742.24963551 </i>
   </energy>
  </scstep>
  <scstep>
   <time name="dav">  610.82  617.83</time>
   <time name="total">  610.82  617.83</time>
   <energy>
    <i name="e_fr_energy">   -742.24977943 </i>
    <i name="e_wo_entrp">   -742.24977943 </i>
    <i name="e_0_energy">   -742.24977943 </i>
   </energy>
  </scstep>
  <scstep>
   <time name="dav">  581.98  588.66</time>
   <time name="total">  581.99  588.66</time>
   <energy>
    <i name="alphaZ">     32.64032665 </i>
    <i name="ewald">  38883.33467657 </i>
    <i name="hartreedc"> -48832.44429740 </i>
    <i name="XCdc">   1127.45660035 </i>
    <i name="pawpsdc">  29718.63671332 </i>
    <i name="pawaedc"> -29774.99787052 </i>
    <i name="eentropy">     -0.00000000 </i>
    <i name="bandstr">  -4059.57111197 </i>
    <i name="atom">  12162.69517650 </i>
    <i name="e_fr_energy">   -742.24978651 </i>
    <i name="e_wo_entrp">   -742.24978651 </i>
    <i name="e_0_energy">   -742.24978651 </i>
   </energy>
  </scstep>
  <structure>
   <crystal>
    <varray name="basis" >
     <v>      29.50172361       0.00000000       0.00000000 </v>
     <v>     -14.75086181      25.54924211       0.00000000 </v>
     <v>       0.00000000       0.00000000      20.00000000 </v>
    </varray>
    <i name="volume">  15074.93358266 </i>
    <varray name="rec_basis" >
     <v>       0.03389632       0.01957005       0.00000000 </v>
     <v>       0.00000000       0.03914010       0.00000000 </v>
     <v>       0.00000000       0.00000000       0.05000000 </v>
    </varray>
   </crystal>
   <varray name="positions" >
    <v>       0.51290417       0.87988210       0.50332799 </v>
    <v>       0.46384403       0.78210817       0.50277559 </v>
    <v>       0.36697793       0.87988210       0.50332799 </v>
    <v>       0.31826414       0.78210817       0.50277559 </v>
    <v>       0.21789183       0.68173586       0.50277559 </v>
    <v>       0.12011790       0.63302207       0.50332799 </v>
    <v>       0.21789183       0.53615597       0.50277559 </v>
    <v>       0.12011790       0.48709583       0.50332799 </v>
    <v>       0.31826414       0.53615597       0.50277559 </v>
    <v>       0.36697793       0.48709583       0.50332799 </v>
    <v>       0.51290417       0.63302207       0.50332799 </v>
    <v>       0.46384403       0.68173586       0.50277559 </v>
    <v>       0.48711388       0.12011472       0.50281635 </v>
    <v>       0.53615836       0.21784540       0.50216128 </v>
    <v>       0.63300083       0.12011472       0.50281635 </v>
    <v>       0.68168704       0.21784540       0.50216128 </v>
    <v>       0.78215460       0.31831296       0.50216128 </v>
    <v>       0.87988528       0.36699917       0.50281635 </v>
    <v>       0.78215460       0.46384164       0.50216128 </v>
    <v>       0.87988528       0.51288612       0.50281635 </v>
    <v>       0.68168704       0.46384164       0.50216128 </v>
    <v>       0.63300083       0.51288612       0.50281635 </v>
    <v>       0.48711388       0.36699917       0.50281635 </v>
    <v>       0.53615836       0.31831296       0.50216128 </v>
    <v>       0.52413452       0.47586548       0.61096844 </v>
    <v>       0.45517323       0.54482677       0.61644553 </v>
    <v>       0.52413452       0.04826904       0.61096844 </v>
    <v>       0.45517323       0.91034646       0.61644553 </v>
    <v>       0.95173096       0.47586548       0.61096844 </v>
    <v>       0.08965354       0.54482677       0.61644553 </v>
    <v>       0.47570884       0.52429116       0.39545966 </v>
    <v>       0.52447248       0.47552752       0.39500135 </v>
    <v>       0.47570884       0.95141767       0.39545966 </v>
    <v>       0.52447248       0.04894496       0.39500135 </v>
    <v>       0.04858233       0.52429116       0.39545966 </v>
    <v>       0.95105504       0.47552752       0.39500135 </v>
    <v>       0.38709327       0.69354663       0.50233650 </v>
    <v>       0.30645337       0.61290673       0.50233650 </v>
    <v>       0.30645337       0.69354663       0.50233650 </v>
    <v>       0.61289140       0.30644570       0.50188548 </v>
    <v>       0.69355430       0.38710860       0.50188548 </v>
    <v>       0.69355430       0.30644570       0.50188548 </v>
    <v>       0.47406604       0.52593396       0.62410478 </v>
    <v>       0.47406604       0.94813209       0.62410478 </v>
    <v>       0.05186791       0.52593396       0.62410478 </v>
    <v>       0.02712210       0.51356105       0.56322895 </v>
    <v>       0.02698333       0.51349166       0.44254566 </v>
    <v>       0.35904617       0.71809234       0.50237465 </v>
    <v>       0.35904617       0.64095383       0.50237465 </v>
    <v>       0.28190766       0.64095383       0.50237465 </v>
    <v>       0.38801715       0.61198285       0.50276318 </v>
    <v>       0.44299849       0.63909948       0.50302073 </v>
    <v>       0.47019227       0.61178968       0.50338315 </v>
    <v>       0.44325516       0.55674484       0.50315915 </v>
    <v>       0.38821032       0.52980773       0.50338315 </v>
    <v>       0.36090052       0.55700151       0.50302073 </v>
    <v>       0.38801715       0.77603430       0.50276318 </v>
    <v>       0.44299849       0.80389900       0.50302073 </v>
    <v>       0.47019227       0.85840259       0.50338315 </v>
    <v>       0.44325516       0.88651032       0.50315915 </v>
    <v>       0.38821032       0.85840259       0.50338315 </v>
    <v>       0.36090052       0.80389900       0.50302073 </v>
    <v>       0.22396570       0.61198285       0.50276318 </v>
    <v>       0.19610100       0.63909948       0.50302073 </v>
    <v>       0.14159741       0.61178968       0.50338315 </v>
    <v>       0.11348968       0.55674484       0.50315915 </v>
    <v>       0.14159741       0.52980773       0.50338315 </v>
    <v>       0.19610100       0.55700151       0.50302073 </v>
    <v>       0.64094275       0.28188550       0.50191043 </v>
    <v>       0.64094275       0.35905725       0.50191043 </v>
    <v>       0.71811450       0.35905725       0.50191043 </v>
    <v>       0.61198104       0.38801896       0.50212680 </v>
    <v>       0.55700385       0.36094929       0.50230510 </v>
    <v>       0.52982406       0.38826589       0.50269039 </v>
    <v>       0.55678193       0.44321807       0.50293745 </v>
    <v>       0.61173411       0.47017594       0.50269039 </v>
    <v>       0.63905071       0.44299615       0.50230510 </v>
    <v>       0.61198104       0.22396207       0.50212680 </v>
    <v>       0.55700385       0.19605457       0.50230510 </v>
    <v>       0.52982406       0.14155818       0.50269039 </v>
    <v>       0.55678193       0.11356387       0.50293745 </v>
    <v>       0.61173411       0.14155818       0.50269039 </v>
    <v>       0.63905071       0.19605457       0.50230510 </v>
    <v>       0.77603793       0.38801896       0.50212680 </v>
    <v>       0.80394543       0.36094929       0.50230510 </v>
    <v>       0.85844182       0.38826589       0.50269039 </v>
    <v>       0.88643613       0.44321807       0.50293745 </v>
    <v>       0.85844182       0.47017594       0.50269039 </v>
    <v>       0.80394543       0.44299615       0.50230510 </v>
    <v>       0.47240789       0.52759211       0.50259746 </v>
    <v>       0.48643895       0.51356105       0.56322895 </v>
    <v>       0.51382376       0.48617624       0.56322870 </v>
    <v>       0.47240789       0.94481578       0.50259746 </v>
    <v>       0.48643895       0.97287790       0.56322895 </v>
    <v>       0.51382376       0.02764752       0.56322870 </v>
    <v>       0.05518422       0.52759211       0.50259746 </v>
    <v>       0.97235248       0.48617624       0.56322870 </v>
    <v>       0.52762752       0.47237248       0.50285332 </v>
    <v>       0.51379981       0.48620019       0.44220267 </v>
    <v>       0.48650834       0.51349166       0.44254566 </v>
    <v>       0.52762752       0.05525503       0.50285332 </v>
    <v>       0.51379981       0.02759962       0.44220267 </v>
    <v>       0.48650834       0.97301667       0.44254566 </v>
    <v>       0.94474497       0.47237248       0.50285332 </v>
    <v>       0.97240038       0.48620019       0.44220267 </v>
   </varray>
  </structure>
  <varray name="forces" >
   <v>       0.00137468      -0.00028131       0.00051216 </v>
   <v>      -0.00101384       0.00260715       0.00233383 </v>
   <v>      -0.00137468      -0.00028131       0.00051216 </v>
   <v>       0.00101384       0.00260715       0.00233383 </v>
   <v>      -0.00175093      -0.00218159       0.00233383 </v>
   <v>      -0.00044372       0.00133116       0.00051216 </v>
   <v>      -0.00276478      -0.00042556       0.00233383 </v>
   <v>       0.00093096      -0.00104985       0.00051216 </v>
   <v>       0.00276478      -0.00042556       0.00233383 </v>
   <v>      -0.00093096      -0.00104985       0.00051216 </v>
   <v>       0.00044372       0.00133116       0.00051216 </v>
   <v>       0.00175093      -0.00218159       0.00233383 </v>
   <v>      -0.00256302      -0.00189488       0.00025542 </v>
   <v>      -0.00201846      -0.00150823       0.00076527 </v>
   <v>       0.00256302      -0.00189488       0.00025542 </v>
   <v>       0.00201846      -0.00150823       0.00076527 </v>
   <v>       0.00231540      -0.00099392       0.00076527 </v>
   <v>       0.00292253      -0.00127220       0.00025542 </v>
   <v>       0.00029694       0.00250216       0.00076527 </v>
   <v>       0.00035950       0.00316709       0.00025542 </v>
   <v>      -0.00029694       0.00250216       0.00076527 </v>
   <v>      -0.00035950       0.00316709       0.00025542 </v>
   <v>      -0.00292253      -0.00127220       0.00025542 </v>
   <v>      -0.00231540      -0.00099392       0.00076527 </v>
   <v>       0.00159803      -0.00092262      -0.00196049 </v>
   <v>       0.00103684      -0.00059862       0.00135576 </v>
   <v>      -0.00000000       0.00184525      -0.00196049 </v>
   <v>      -0.00000000       0.00119724       0.00135576 </v>
   <v>      -0.00159803      -0.00092262      -0.00196049 </v>
   <v>      -0.00103684      -0.00059862       0.00135576 </v>
   <v>       0.00270996      -0.00156460      -0.00517822 </v>
   <v>       0.00364684      -0.00210550      -0.00004993 </v>
   <v>      -0.00000000       0.00312919      -0.00517822 </v>
   <v>      -0.00000000       0.00421101      -0.00004993 </v>
   <v>      -0.00270996      -0.00156460      -0.00517822 </v>
   <v>      -0.00364684      -0.00210550      -0.00004993 </v>
   <v>       0.00456855       0.00263765      -0.00625562 </v>
   <v>       0.00000000      -0.00527531      -0.00625562 </v>
   <v>      -0.00456855       0.00263765      -0.00625562 </v>
   <v>       0.00080117       0.00046256       0.00232379 </v>
   <v>       0.00000000      -0.00092511       0.00232379 </v>
   <v>      -0.00080117       0.00046256       0.00232379 </v>
   <v>       0.00213634      -0.00123341      -0.00910499 </v>
   <v>      -0.00000000       0.00246683      -0.00910499 </v>
   <v>      -0.00213634      -0.00123341      -0.00910499 </v>
   <v>       0.00485751       0.00280449       0.00188473 </v>
   <v>      -0.00153401      -0.00088566       0.00420201 </v>
   <v>      -0.00000000       0.00314630       0.00285294 </v>
   <v>       0.00272478      -0.00157315       0.00285294 </v>
   <v>      -0.00272478      -0.00157315       0.00285294 </v>
   <v>       0.00517043      -0.00298515      -0.00032647 </v>
   <v>      -0.00159533      -0.00038515       0.00187542 </v>
   <v>       0.00180882      -0.00004584      -0.00098209 </v>
   <v>       0.00319895      -0.00184692      -0.00202215 </v>
   <v>       0.00094411      -0.00154356      -0.00098209 </v>
   <v>      -0.00046411       0.00157417       0.00187542 </v>
   <v>      -0.00000000       0.00597029      -0.00032647 </v>
   <v>      -0.00113122      -0.00118902       0.00187542 </v>
   <v>       0.00086471       0.00158940      -0.00098209 </v>
   <v>      -0.00000000       0.00369383      -0.00202215 </v>
   <v>      -0.00086471       0.00158940      -0.00098209 </v>
   <v>       0.00113122      -0.00118902       0.00187542 </v>
   <v>      -0.00517043      -0.00298515      -0.00032647 </v>
   <v>       0.00159533      -0.00038515       0.00187542 </v>
   <v>      -0.00180882      -0.00004584      -0.00098209 </v>
   <v>      -0.00319895      -0.00184692      -0.00202215 </v>
   <v>      -0.00094411      -0.00154356      -0.00098209 </v>
   <v>       0.00046411       0.00157417       0.00187542 </v>
   <v>      -0.00000000      -0.00056533       0.00045881 </v>
   <v>      -0.00048959       0.00028266       0.00045881 </v>
   <v>       0.00048959       0.00028266       0.00045881 </v>
   <v>       0.00156408      -0.00090302       0.00054309 </v>
   <v>      -0.00065009       0.00119465       0.00139997 </v>
   <v>      -0.00381438       0.00024836       0.00385077 </v>
   <v>       0.00096710      -0.00055836      -0.00508050 </v>
   <v>      -0.00212228       0.00317917       0.00385077 </v>
   <v>      -0.00135964      -0.00003433       0.00139997 </v>
   <v>      -0.00000000       0.00180605       0.00054309 </v>
   <v>       0.00070955      -0.00116032       0.00139997 </v>
   <v>      -0.00169210      -0.00342753       0.00385077 </v>
   <v>      -0.00000000       0.00111672      -0.00508050 </v>
   <v>       0.00169210      -0.00342753       0.00385077 </v>
   <v>      -0.00070955      -0.00116032       0.00139997 </v>
   <v>      -0.00156408      -0.00090302       0.00054309 </v>
   <v>       0.00065009       0.00119465       0.00139997 </v>
   <v>       0.00381438       0.00024836       0.00385077 </v>
   <v>      -0.00096710      -0.00055836      -0.00508050 </v>
   <v>       0.00212228       0.00317917       0.00385077 </v>
   <v>       0.00135964      -0.00003433       0.00139997 </v>
   <v>       0.00218615      -0.00126217      -0.00237318 </v>
   <v>      -0.00485751       0.00280449       0.00188473 </v>
   <v>      -0.00290787       0.00167886       0.00027189 </v>
   <v>      -0.00000000       0.00252435      -0.00237318 </v>
   <v>       0.00000000      -0.00560897       0.00188473 </v>
   <v>       0.00000000      -0.00335772       0.00027189 </v>
   <v>      -0.00218615      -0.00126217      -0.00237318 </v>
   <v>       0.00290787       0.00167886       0.00027189 </v>
   <v>       0.00352820      -0.00203701      -0.00167921 </v>
   <v>      -0.00242714       0.00140131       0.00011628 </v>
   <v>       0.00153401      -0.00088566       0.00420201 </v>
   <v>      -0.00000000       0.00407401      -0.00167921 </v>
   <v>       0.00000000      -0.00280262       0.00011628 </v>
   <v>      -0.00000000       0.00177132       0.00420201 </v>
   <v>      -0.00352820      -0.00203701      -0.00167921 </v>
   <v>       0.00242714       0.00140131       0.00011628 </v>
  </varray>
  <varray name="stress" >
   <v>       0.00719538      -0.00000000       0.00000000 </v>
   <v>      -0.00000000       0.00719538       0.00000000 </v>
   <v>      -0.00000000       0.00000000      -0.14120500 </v>
  </varray>
  <energy>
   <i name="e_fr_energy">   -744.26157021 </i>
   <i name="e_wo_entrp">   -744.26157021 </i>
   <i name="e_0_energy">     -0.00000000 </i>
  </energy>
  <time name="totalsc"> 3725.96 3771.07</time>
  <eigenvalues>
   <array>
    <dimension dim="1">band</dimension>
    <dimension dim="2">kpoint</dimension>
    <dimension dim="3">spin</dimension>
    <field>eigene</field>
    <field>occ</field>
    <set>
     <set comment="spin 1">
      <set comment="kpoint 1">
       <r>  -26.3701    1.0000 </r>
       <r>  -26.3701    1.0000 </r>
       <r>  -26.3692    1.0000 </r>
       <r>  -25.5183    1.0000 </r>
       <r>  -25.0942    1.0000 </r>
       <r>  -22.5955    1.0000 </r>
       <r>  -22.5953    1.0000 </r>
       <r>  -22.1761    1.0000 </r>
       <r>  -22.1755    1.0000 </r>
       <r>  -21.6396    1.0000 </r>
       <r>  -21.5859    1.0000 </r>
       <r>  -21.5855    1.0000 </r>
       <r>  -21.3229    1.0000 </r>
       <r>  -21.2724    1.0000 </r>
       <r>  -21.2722    1.0000 </r>
       <r>  -20.8203    1.0000 </r>
       <r>  -20.7879    1.0000 </r>
       <r>  -20.7876    1.0000 </r>
       <r>  -19.6313    1.0000 </r>
       <r>  -19.6309    1.0000 </r>
       <r>  -19.5524    1.0000 </r>
       <r>  -18.9476    1.0000 </r>
       <r>  -18.9475    1.0000 </r>
       <r>  -18.7258    1.0000 </r>
       <r>  -18.6204    1.0000 </r>
       <r>  -18.6032    1.0000 </r>
       <r>  -18.6030    1.0000 </r>
       <r>  -18.2327    1.0000 </r>
       <r>  -18.2325    1.0000 </r>
       <r>  -18.2116    1.0000 </r>
       <r>  -18.1614    1.0000 </r>
       <r>  -18.1608    1.0000 </r>
       <r>  -18.1501    1.0000 </r>
       <r>  -17.9358    1.0000 </r>
       <r>  -17.9353    1.0000 </r>
       <r>  -17.6235    1.0000 </r>
       <r>  -16.9240    1.0000 </r>
       <r>  -16.9237    1.0000 </r>
       <r>  -16.2328    1.0000 </r>
       <r>  -16.2325    1.0000 </r>
       <r>  -15.9949    1.0000 </r>
       <r>  -15.3283    1.0000 </r>
       <r>  -15.2461    1.0000 </r>
       <r>  -15.2460    1.0000 </r>
       <r>  -14.9403    1.0000 </r>
       <r>  -14.9386    1.0000 </r>
       <r>  -14.9384    1.0000 </r>
       <r>  -14.9255    1.0000 </r>
       <r>  -14.7522    1.0000 </r>
       <r>  -14.7516    1.0000 </r>
       <r>  -14.7509    1.0000 </r>
       <r>  -14.6066    1.0000 </r>
       <r>  -14.6065    1.0000 </r>
       <r>  -14.5071    1.0000 </r>
       <r>  -14.2486    1.0000 </r>
       <r>  -14.2484    1.0000 </r>
       <r>  -13.9982    1.0000 </r>
       <r>  -13.9980    1.0000 </r>
       <r>  -13.4348    1.0000 </r>
       <r>  -13.4149    1.0000 </r>
       <r>  -13.1763    1.0000 </r>
       <r>  -13.1760    1.0000 </r>
       <r>  -13.1132    1.0000 </r>
       <r>  -13.0217    1.0000 </r>
       <r>  -12.8444    1.0000 </r>
       <r>  -12.5196    1.0000 </r>
       <r>  -12.5193    1.0000 </r>
       <r>  -12.1091    1.0000 </r>
       <r>  -11.9749    1.0000 </r>
       <r>  -11.9744    1.0000 </r>
       <r>  -11.6158    1.0000 </r>
       <r>  -11.6157    1.0000 </r>
       <r>  -11.6098    1.0000 </r>
       <r>  -11.3798    1.0000 </r>
       <r>  -11.3795    1.0000 </r>
       <r>  -11.3748    1.0000 </r>
       <r>  -11.1638    1.0000 </r>
       <r>  -11.1637    1.0000 </r>
       <r>  -11.1312    1.0000 </r>
       <r>  -11.0096    1.0000 </r>
       <r>  -10.9861    1.0000 </r>
       <r>  -10.9859    1.0000 </r>
       <r>  -10.9571    1.0000 </r>
       <r>  -10.8880    1.0000 </r>
       <r>  -10.7647    1.0000 </r>
       <r>  -10.7645    1.0000 </r>
       <r>  -10.5943    1.0000 </r>
       <r>  -10.5923    1.0000 </r>
       <r>  -10.5922    1.0000 </r>
       <r>  -10.5098    1.0000 </r>
       <r>  -10.3056    1.0000 </r>
       <r>  -10.3055    1.0000 </r>
       <r>  -10.2819    1.0000 </r>
       <r>  -10.2815    1.0000 </r>
       <r>  -10.2451    1.0000 </r>
       <r>  -10.2414    1.0000 </r>
       <r>   -9.9565    1.0000 </r>
       <r>   -9.9563    1.0000 </r>
       <r>   -9.8864    1.0000 </r>
       <r>   -9.8730    1.0000 </r>
       <r>   -9.8729    1.0000 </r>
       <r>   -9.8537    1.0000 </r>
       <r>   -9.6476    1.0000 </r>
       <r>   -9.6471    1.0000 </r>
       <r>   -9.6413    1.0000 </r>
       <r>   -9.6299    1.0000 </r>
       <r>   -9.6296    1.0000 </r>
       <r>   -9.3418    1.0000 </r>
       <r>   -9.3415    1.0000 </r>
       <r>   -9.3057    1.0000 </r>
       <r>   -9.1975    1.0000 </r>
       <r>   -9.1974    1.0000 </r>
       <r>   -9.0472    1.0000 </r>
       <r>   -9.0444    1.0000 </r>
       <r>   -9.0442    1.0000 </r>
       <r>   -8.7578    1.0000 </r>
       <r>   -8.6897    1.0000 </r>
       <r>   -8.6067    1.0000 </r>
       <r>   -8.4827    1.0000 </r>
       <r>   -8.4824    1.0000 </r>
       <r>   -8.3950    1.0000 </r>
       <r>   -8.3950    1.0000 </r>
       <r>   -8.3500    1.0000 </r>
       <r>   -8.3479    1.0000 </r>
       <r>   -8.3478    1.0000 </r>
       <r>   -8.2976    1.0000 </r>
       <r>   -8.2785    1.0000 </r>
       <r>   -8.1339    1.0000 </r>
       <r>   -8.1338    1.0000 </r>
       <r>   -8.1036    1.0000 </r>
       <r>   -8.1035    1.0000 </r>
       <r>   -8.0535    1.0000 </r>
       <r>   -7.8081    1.0000 </r>
       <r>   -7.8079    1.0000 </r>
       <r>   -7.7892    1.0000 </r>
       <r>   -7.7888    1.0000 </r>
       <r>   -7.7551    1.0000 </r>
       <r>   -7.7305    1.0000 </r>
       <r>   -7.6806    1.0000 </r>
       <r>   -7.6803    1.0000 </r>
       <r>   -6.5697    1.0000 </r>
       <r>   -6.5696    1.0000 </r>
       <r>   -6.5478    1.0000 </r>
       <r>   -6.4117    1.0000 </r>
       <r>   -6.2727    1.0000 </r>
       <r>   -6.2725    1.0000 </r>
       <r>   -6.1634    1.0000 </r>
       <r>   -6.1634    1.0000 </r>
       <r>   -6.1432    1.0000 </r>
       <r>   -6.1066    1.0000 </r>
       <r>   -6.1060    1.0000 </r>
       <r>   -6.0017    1.0000 </r>
       <r>   -5.9878    1.0000 </r>
       <r>   -5.9872    1.0000 </r>
       <r>   -5.9501    1.0000 </r>
       <r>   -5.8212    1.0000 </r>
       <r>   -5.8211    1.0000 </r>
       <r>   -5.6575    1.0000 </r>
       <r>   -5.6574    1.0000 </r>
       <r>   -5.2881    1.0000 </r>
       <r>   -5.2859    1.0000 </r>
       <r>   -5.2851    1.0000 </r>
       <r>   -2.9055    0.0000 </r>
       <r>   -2.9054    0.0000 </r>
       <r>   -2.4657    0.0000 </r>
       <r>   -2.4657    0.0000 </r>
       <r>   -1.7792    0.0000 </r>
       <r>   -1.4819    0.0000 </r>
       <r>   -1.4817    0.0000 </r>
       <r>   -1.4811    0.0000 </r>
       <r>   -1.3066    0.0000 </r>
       <r>   -1.1394    0.0000 </r>
       <r>   -1.1392    0.0000 </r>
       <r>   -1.1358    0.0000 </r>
       <r>   -0.9428    0.0000 </r>
       <r>   -0.9424    0.0000 </r>
       <r>   -0.9365    0.0000 </r>
       <r>   -0.5150    0.0000 </r>
       <r>   -0.5146    0.0000 </r>
       <r>   -0.5068    0.0000 </r>
       <r>   -0.4965    0.0000 </r>
       <r>   -0.4002    0.0000 </r>
       <r>   -0.3999    0.0000 </r>
       <r>   -0.2848    0.0000 </r>
       <r>   -0.2845    0.0000 </r>
       <r>   -0.1521    0.0000 </r>
       <r>    0.0279    0.0000 </r>
       <r>    0.0284    0.0000 </r>
       <r>    0.0586    0.0000 </r>
       <r>    0.0586    0.0000 </r>
       <r>    0.0893    0.0000 </r>
       <r>    0.1505    0.0000 </r>
       <r>    0.1505    0.0000 </r>
       <r>    0.2368    0.0000 </r>
       <r>    0.3016    0.0000 </r>
       <r>    0.3019    0.0000 </r>
       <r>    0.3153    0.0000 </r>
       <r>    0.4248    0.0000 </r>
       <r>    0.4340    0.0000 </r>
       <r>    0.4343    0.0000 </r>
       <r>    0.4719    0.0000 </r>
       <r>    0.5021    0.0000 </r>
       <r>    0.5407    0.0000 </r>
       <r>    0.5418    0.0000 </r>
       <r>    0.5421    0.0000 </r>
       <r>    0.7050    0.0000 </r>
       <r>    0.7065    0.0000 </r>
       <r>    0.7151    0.0000 </r>
       <r>    0.7307    0.0000 </r>
       <r>    0.7318    0.0000 </r>
       <r>    0.7934    0.0000 </r>
       <r>    0.8023    0.0000 </r>
       <r>    0.8038    0.0000 </r>
       <r>    0.8225    0.0000 </r>
       <r>    0.8472    0.0000 </r>
       <r>    0.8967    0.0000 </r>
       <r>    0.8972    0.0000 </r>
       <r>    0.8995    0.0000 </r>
       <r>    0.9778    0.0000 </r>
       <r>    0.9798    0.0000 </r>
       <r>    0.9834    0.0000 </r>
       <r>    1.0079    0.0000 </r>
       <r>    1.0118    0.0000 </r>
       <r>    1.0530    0.0000 </r>
      </set>
      <set comment="kpoint 2">
       <r>  -26.3701    1.0000 </r>
       <r>  -26.3701    1.0000 </r>
       <r>  -26.3692    1.0000 </r>
       <r>  -25.5183    1.0000 </r>
       <r>  -25.0942    1.0000 </r>
       <r>  -22.5955    1.0000 </r>
       <r>  -22.5953    1.0000 </r>
       <r>  -22.1761    1.0000 </r>
       <r>  -22.1755    1.0000 </r>
       <r>  -21.6396    1.0000 </r>
       <r>  -21.5859    1.0000 </r>
       <r>  -21.5855    1.0000 </r>
       <r>  -21.3228    1.0000 </r>
       <r>  -21.2724    1.0000 </r>
       <r>  -21.2722    1.0000 </r>
       <r>  -20.8203    1.0000 </r>
       <r>  -20.7879    1.0000 </r>
       <r>  -20.7876    1.0000 </r>
       <r>  -19.6312    1.0000 </r>
       <r>  -19.6309    1.0000 </r>
       <r>  -19.5525    1.0000 </r>
       <r>  -18.9475    1.0000 </r>
       <r>  -18.9473    1.0000 </r>
       <r>  -18.7263    1.0000 </r>
       <r>  -18.6204    1.0000 </r>
       <r>  -18.6032    1.0000 </r>
       <r>  -18.6029    1.0000 </r>
       <r>  -18.2326    1.0000 </r>
       <r>  -18.2324    1.0000 </r>
       <r>  -18.2116    1.0000 </r>
       <r>  -18.1614    1.0000 </r>
       <r>  -18.1608    1.0000 </r>
       <r>  -18.1501    1.0000 </r>
       <r>  -17.9356    1.0000 </r>
       <r>  -17.9351    1.0000 </r>
       <r>  -17.6241    1.0000 </r>
       <r>  -16.9238    1.0000 </r>
       <r>  -16.9231    1.0000 </r>
       <r>  -16.2353    1.0000 </r>
       <r>  -16.2326    1.0000 </r>
       <r>  -15.9921    1.0000 </r>
       <r>  -15.3283    1.0000 </r>
       <r>  -15.2474    1.0000 </r>
       <r>  -15.2460    1.0000 </r>
       <r>  -14.9483    1.0000 </r>
       <r>  -14.9385    1.0000 </r>
       <r>  -14.9295    1.0000 </r>
       <r>  -14.9255    1.0000 </r>
       <r>  -14.7522    1.0000 </r>
       <r>  -14.7515    1.0000 </r>
       <r>  -14.7509    1.0000 </r>
       <r>  -14.6066    1.0000 </r>
       <r>  -14.6065    1.0000 </r>
       <r>  -14.5074    1.0000 </r>
       <r>  -14.2486    1.0000 </r>
       <r>  -14.2484    1.0000 </r>
       <r>  -13.9982    1.0000 </r>
       <r>  -13.9980    1.0000 </r>
       <r>  -13.4348    1.0000 </r>
       <r>  -13.4149    1.0000 </r>
       <r>  -13.1764    1.0000 </r>
       <r>  -13.1760    1.0000 </r>
       <r>  -13.1130    1.0000 </r>
       <r>  -13.0217    1.0000 </r>
       <r>  -12.8450    1.0000 </r>
       <r>  -12.5194    1.0000 </r>
       <r>  -12.5187    1.0000 </r>
       <r>  -12.1092    1.0000 </r>
       <r>  -11.9748    1.0000 </r>
       <r>  -11.9744    1.0000 </r>
       <r>  -11.6268    1.0000 </r>
       <r>  -11.6157    1.0000 </r>
       <r>  -11.5991    1.0000 </r>
       <r>  -11.3800    1.0000 </r>
       <r>  -11.3795    1.0000 </r>
       <r>  -11.3747    1.0000 </r>
       <r>  -11.1639    1.0000 </r>
       <r>  -11.1637    1.0000 </r>
       <r>  -11.1309    1.0000 </r>
       <r>  -11.0097    1.0000 </r>
       <r>  -10.9863    1.0000 </r>
       <r>  -10.9859    1.0000 </r>
       <r>  -10.9571    1.0000 </r>
       <r>  -10.8880    1.0000 </r>
       <r>  -10.7646    1.0000 </r>
       <r>  -10.7643    1.0000 </r>
       <r>  -10.5944    1.0000 </r>
       <r>  -10.5927    1.0000 </r>
       <r>  -10.5922    1.0000 </r>
       <r>  -10.5093    1.0000 </r>
       <r>  -10.3056    1.0000 </r>
       <r>  -10.3055    1.0000 </r>
       <r>  -10.2820    1.0000 </r>
       <r>  -10.2815    1.0000 </r>
       <r>  -10.2451    1.0000 </r>
       <r>  -10.2414    1.0000 </r>
       <r>   -9.9589    1.0000 </r>
       <r>   -9.9563    1.0000 </r>
       <r>   -9.8924    1.0000 </r>
       <r>   -9.8728    1.0000 </r>
       <r>   -9.8643    1.0000 </r>
       <r>   -9.8537    1.0000 </r>
       <r>   -9.6477    1.0000 </r>
       <r>   -9.6471    1.0000 </r>
       <r>   -9.6413    1.0000 </r>
       <r>   -9.6299    1.0000 </r>
       <r>   -9.6296    1.0000 </r>
       <r>   -9.3420    1.0000 </r>
       <r>   -9.3416    1.0000 </r>
       <r>   -9.3058    1.0000 </r>
       <r>   -9.1977    1.0000 </r>
       <r>   -9.1974    1.0000 </r>
       <r>   -9.0491    1.0000 </r>
       <r>   -9.0442    1.0000 </r>
       <r>   -9.0427    1.0000 </r>
       <r>   -8.7578    1.0000 </r>
       <r>   -8.6891    1.0000 </r>
       <r>   -8.6068    1.0000 </r>
       <r>   -8.4827    1.0000 </r>
       <r>   -8.4824    1.0000 </r>
       <r>   -8.3951    1.0000 </r>
       <r>   -8.3950    1.0000 </r>
       <r>   -8.3500    1.0000 </r>
       <r>   -8.3484    1.0000 </r>
       <r>   -8.3479    1.0000 </r>
       <r>   -8.2972    1.0000 </r>
       <r>   -8.2785    1.0000 </r>
       <r>   -8.1338    1.0000 </r>
       <r>   -8.1338    1.0000 </r>
       <r>   -8.1036    1.0000 </r>
       <r>   -8.1035    1.0000 </r>
       <r>   -8.0535    1.0000 </r>
       <r>   -7.8081    1.0000 </r>
       <r>   -7.8079    1.0000 </r>
       <r>   -7.7892    1.0000 </r>
       <r>   -7.7888    1.0000 </r>
       <r>   -7.7550    1.0000 </r>
       <r>   -7.7305    1.0000 </r>
       <r>   -7.6806    1.0000 </r>
       <r>   -7.6803    1.0000 </r>
       <r>   -6.5697    1.0000 </r>
       <r>   -6.5696    1.0000 </r>
       <r>   -6.5478    1.0000 </r>
       <r>   -6.4117    1.0000 </r>
       <r>   -6.2727    1.0000 </r>
       <r>   -6.2725    1.0000 </r>
       <r>   -6.1634    1.0000 </r>
       <r>   -6.1634    1.0000 </r>
       <r>   -6.1432    1.0000 </r>
       <r>   -6.1066    1.0000 </r>
       <r>   -6.1060    1.0000 </r>
       <r>   -6.0018    1.0000 </r>
       <r>   -5.9877    1.0000 </r>
       <r>   -5.9872    1.0000 </r>
       <r>   -5.9501    1.0000 </r>
       <r>   -5.8212    1.0000 </r>
       <r>   -5.8211    1.0000 </r>
       <r>   -5.6575    1.0000 </r>
       <r>   -5.6574    1.0000 </r>
       <r>   -5.2881    1.0000 </r>
       <r>   -5.2859    1.0000 </r>
       <r>   -5.2851    1.0000 </r>
       <r>   -2.9055    0.0000 </r>
       <r>   -2.9054    0.0000 </r>
       <r>   -2.4657    0.0000 </r>
       <r>   -2.4657    0.0000 </r>
       <r>   -1.7792    0.0000 </r>
       <r>   -1.4820    0.0000 </r>
       <r>   -1.4817    0.0000 </r>
       <r>   -1.4811    0.0000 </r>
       <r>   -1.3066    0.0000 </r>
       <r>   -1.1394    0.0000 </r>
       <r>   -1.1392    0.0000 </r>
       <r>   -1.1358    0.0000 </r>
       <r>   -0.9428    0.0000 </r>
       <r>   -0.9424    0.0000 </r>
       <r>   -0.9366    0.0000 </r>
       <r>   -0.5150    0.0000 </r>
       <r>   -0.5146    0.0000 </r>
       <r>   -0.5067    0.0000 </r>
       <r>   -0.4965    0.0000 </r>
       <r>   -0.4002    0.0000 </r>
       <r>   -0.3999    0.0000 </r>
       <r>   -0.2849    0.0000 </r>
       <r>   -0.2845    0.0000 </r>
       <r>   -0.1518    0.0000 </r>
       <r>    0.0280    0.0000 </r>
       <r>    0.0285    0.0000 </r>
       <r>    0.0586    0.0000 </r>
       <r>    0.0587    0.0000 </r>
       <r>    0.0894    0.0000 </r>
       <r>    0.1503    0.0000 </r>
       <r>    0.1504    0.0000 </r>
       <r>    0.2370    0.0000 </r>
       <r>    0.3007    0.0000 </r>
       <r>    0.3011    0.0000 </r>
       <r>    0.3155    0.0000 </r>
       <r>    0.4237    0.0000 </r>
       <r>    0.4345    0.0000 </r>
       <r>    0.4361    0.0000 </r>
       <r>    0.4726    0.0000 </r>
       <r>    0.5022    0.0000 </r>
       <r>    0.5345    0.0000 </r>
       <r>    0.5422    0.0000 </r>
       <r>    0.5486    0.0000 </r>
       <r>    0.7033    0.0000 </r>
       <r>    0.7056    0.0000 </r>
       <r>    0.7173    0.0000 </r>
       <r>    0.7306    0.0000 </r>
       <r>    0.7315    0.0000 </r>
       <r>    0.7920    0.0000 </r>
       <r>    0.8022    0.0000 </r>
       <r>    0.8037    0.0000 </r>
       <r>    0.8246    0.0000 </r>
       <r>    0.8479    0.0000 </r>
       <r>    0.8940    0.0000 </r>
       <r>    0.8972    0.0000 </r>
       <r>    0.9018    0.0000 </r>
       <r>    0.9754    0.0000 </r>
       <r>    0.9777    0.0000 </r>
       <r>    0.9863    0.0000 </r>
       <r>    1.0067    0.0000 </r>
       <r>    1.0114    0.0000 </r>
       <r>    1.0540    0.0000 </r>
      </set>
      <set comment="kpoint 3">
       <r>  -26.3701    1.0000 </r>
       <r>  -26.3701    1.0000 </r>
       <r>  -26.3692    1.0000 </r>
       <r>  -25.5183    1.0000 </r>
       <r>  -25.0942    1.0000 </r>
       <r>  -22.5955    1.0000 </r>
       <r>  -22.5953    1.0000 </r>
       <r>  -22.1761    1.0000 </r>
       <r>  -22.1755    1.0000 </r>
       <r>  -21.6396    1.0000 </r>
       <r>  -21.5860    1.0000 </r>
       <r>  -21.5855    1.0000 </r>
       <r>  -21.3226    1.0000 </r>
       <r>  -21.2726    1.0000 </r>
       <r>  -21.2722    1.0000 </r>
       <r>  -20.8202    1.0000 </r>
       <r>  -20.7879    1.0000 </r>
       <r>  -20.7876    1.0000 </r>
       <r>  -19.6311    1.0000 </r>
       <r>  -19.6308    1.0000 </r>
       <r>  -19.5527    1.0000 </r>
       <r>  -18.9475    1.0000 </r>
       <r>  -18.9465    1.0000 </r>
       <r>  -18.7277    1.0000 </r>
       <r>  -18.6204    1.0000 </r>
       <r>  -18.6032    1.0000 </r>
       <r>  -18.6027    1.0000 </r>
       <r>  -18.2326    1.0000 </r>
       <r>  -18.2321    1.0000 </r>
       <r>  -18.2116    1.0000 </r>
       <r>  -18.1614    1.0000 </r>
       <r>  -18.1608    1.0000 </r>
       <r>  -18.1501    1.0000 </r>
       <r>  -17.9354    1.0000 </r>
       <r>  -17.9342    1.0000 </r>
       <r>  -17.6261    1.0000 </r>
       <r>  -16.9238    1.0000 </r>
       <r>  -16.9207    1.0000 </r>
       <r>  -16.2428    1.0000 </r>
       <r>  -16.2326    1.0000 </r>
       <r>  -15.9843    1.0000 </r>
       <r>  -15.3283    1.0000 </r>
       <r>  -15.2516    1.0000 </r>
       <r>  -15.2460    1.0000 </r>
       <r>  -14.9560    1.0000 </r>
       <r>  -14.9385    1.0000 </r>
       <r>  -14.9255    1.0000 </r>
       <r>  -14.9187    1.0000 </r>
       <r>  -14.7522    1.0000 </r>
       <r>  -14.7515    1.0000 </r>
       <r>  -14.7509    1.0000 </r>
       <r>  -14.6066    1.0000 </r>
       <r>  -14.6065    1.0000 </r>
       <r>  -14.5081    1.0000 </r>
       <r>  -14.2486    1.0000 </r>
       <r>  -14.2483    1.0000 </r>
       <r>  -13.9982    1.0000 </r>
       <r>  -13.9980    1.0000 </r>
       <r>  -13.4348    1.0000 </r>
       <r>  -13.4149    1.0000 </r>
       <r>  -13.1767    1.0000 </r>
       <r>  -13.1760    1.0000 </r>
       <r>  -13.1122    1.0000 </r>
       <r>  -13.0217    1.0000 </r>
       <r>  -12.8468    1.0000 </r>
       <r>  -12.5193    1.0000 </r>
       <r>  -12.5167    1.0000 </r>
       <r>  -12.1093    1.0000 </r>
       <r>  -11.9747    1.0000 </r>
[...]
       <r>   -23.4144     0.0000    10.0000 </r>
       <r>   -23.3137     0.0000    10.0000 </r>
       <r>   -23.2130     0.0000    10.0000 </r>
       <r>   -23.1124     0.0000    10.0000 </r>
       <r>   -23.0117     0.0000    10.0000 </r>
       <r>   -22.9111     0.0000    10.0000 </r>
       <r>   -22.8104     0.0000    10.0000 </r>
       <r>   -22.7098     0.0000    10.0000 </r>
       <r>   -22.6091     1.0497    10.1057 </r>
       <r>   -22.5084     0.0000    14.0000 </r>
       <r>   -22.4078     0.0000    14.0000 </r>
       <r>   -22.3071     0.0000    14.0000 </r>
       <r>   -22.2065     0.0003    14.0000 </r>
       <r>   -22.1058    39.7379    18.0000 </r>
       <r>   -22.0051     0.0000    18.0000 </r>
       <r>   -21.9045     0.0000    18.0000 </r>
       <r>   -21.8038     0.0000    18.0000 </r>
       <r>   -21.7032     0.0000    18.0000 </r>
       <r>   -21.6025    20.4689    20.0604 </r>
       <r>   -21.5018     0.0000    24.0000 </r>
       <r>   -21.4012     0.0000    24.0000 </r>
       <r>   -21.3005    19.1496    25.9276 </r>
       <r>   -21.1999    28.1446    30.0000 </r>
       <r>   -21.0992     0.0000    30.0000 </r>
       <r>   -20.9986     0.0000    30.0000 </r>
       <r>   -20.8979     0.0000    30.0000 </r>
       <r>   -20.7972    24.6715    32.4834 </r>
       <r>   -20.6966     0.0000    36.0000 </r>
       <r>   -20.5959     0.0000    36.0000 </r>
       <r>   -20.4953     0.0000    36.0000 </r>
       <r>   -20.3946     0.0000    36.0000 </r>
       <r>   -20.2939     0.0000    36.0000 </r>
       <r>   -20.1933     0.0000    36.0000 </r>
       <r>   -20.0926     0.0000    36.0000 </r>
       <r>   -19.9920     0.0000    36.0000 </r>
       <r>   -19.8913     0.0000    36.0000 </r>
       <r>   -19.7906     0.0000    36.0000 </r>
       <r>   -19.6900     0.0000    36.0000 </r>
       <r>   -19.5893    39.7475    40.0009 </r>
       <r>   -19.4887    19.8597    42.0000 </r>
       <r>   -19.3880     0.0000    42.0000 </r>
       <r>   -19.2874     0.0000    42.0000 </r>
       <r>   -19.1867     0.0000    42.0000 </r>
       <r>   -19.0860     0.0000    42.0000 </r>
       <r>   -18.9854     0.0000    42.0000 </r>
       <r>   -18.8847    32.0284    45.2239 </r>
       <r>   -18.7841    13.7071    47.1798 </r>
       <r>   -18.6834     6.2916    48.0000 </r>
       <r>   -18.5827    58.5077    53.8893 </r>
       <r>   -18.4821     0.0000    54.0000 </r>
       <r>   -18.3814     0.0000    54.0000 </r>
       <r>   -18.2808     0.0000    54.0000 </r>
       <r>   -18.1801    59.7775    60.0171 </r>
       <r>   -18.0794    19.8688    66.0000 </r>
       <r>   -17.9788     0.0000    66.0000 </r>
       <r>   -17.8781    28.3821    68.8569 </r>
       <r>   -17.7775    12.2696    70.2684 </r>
       <r>   -17.6768     8.2837    71.3673 </r>
       <r>   -17.5762     4.9670    72.0000 </r>
       <r>   -17.4755     0.0000    72.0000 </r>
       <r>   -17.3748     0.0000    72.0000 </r>
       <r>   -17.2742     0.0000    72.0000 </r>
       <r>   -17.1735     0.0000    72.0000 </r>
       <r>   -17.0729     0.0000    72.0000 </r>
       <r>   -16.9722     0.0000    72.0000 </r>
       <r>   -16.8715    25.4692    74.5637 </r>
       <r>   -16.7709     7.1560    75.3870 </r>
       <r>   -16.6702     1.9851    76.0000 </r>
       <r>   -16.5696     0.0000    76.0000 </r>
       <r>   -16.4689    10.0694    77.0136 </r>
       <r>   -16.3682     2.4649    77.3814 </r>
       <r>   -16.2676     2.8796    77.7232 </r>
       <r>   -16.1669    21.8555    80.0000 </r>
       <r>   -16.0663     0.0000    80.0000 </r>
       <r>   -15.9656     2.4577    80.2474 </r>
       <r>   -15.8650     2.3419    80.5691 </r>
       <r>   -15.7643     2.2597    80.8608 </r>
       <r>   -15.6636     6.1571    81.5531 </r>
       <r>   -15.5630     3.1975    82.0219 </r>
       <r>   -15.4623     7.6602    82.9711 </r>
       <r>   -15.3617     2.5838    83.3267 </r>
       <r>   -15.2610    23.8898    85.8047 </r>
       <r>   -15.1603     0.0000    88.0000 </r>
       <r>   -15.0597     0.0000    88.0000 </r>
       <r>   -14.9590    18.0124    89.8131 </r>
       <r>   -14.8584    38.6351    94.4577 </r>
       <r>   -14.7577    20.3275    96.6128 </r>
       <r>   -14.6570     8.6071   102.0000 </r>
       <r>   -14.5564    48.2824   106.8601 </r>
       <r>   -14.4557     7.2848   108.0000 </r>
       <r>   -14.3551     0.0000   108.0000 </r>
       <r>   -14.2544     7.7951   108.7846 </r>
       <r>   -14.1538     0.0000   112.0000 </r>
       <r>   -14.0531     0.0000   112.0000 </r>
       <r>   -13.9524    39.7382   116.0000 </r>
       <r>   -13.8518     0.0000   116.0000 </r>
       <r>   -13.7511     0.0000   116.0000 </r>
       <r>   -13.6505     0.0000   116.0000 </r>
       <r>   -13.5498     0.0000   116.0000 </r>
       <r>   -13.4491     0.4234   116.0426 </r>
       <r>   -13.3485    19.8691   120.0000 </r>
       <r>   -13.2478     0.0000   120.0000 </r>
       <r>   -13.1472    39.7377   124.0000 </r>
       <r>   -13.0465    19.8716   126.0003 </r>
       <r>   -12.9458    20.1006   128.0238 </r>
       <r>   -12.8452    11.0726   129.8815 </r>
       <r>   -12.7445     0.0000   130.0000 </r>
       <r>   -12.6439     0.0000   130.0000 </r>
       <r>   -12.5432     0.0072   130.0007 </r>
       <r>   -12.4426    28.4894   132.8684 </r>
       <r>   -12.3419     5.9591   134.0000 </r>
       <r>   -12.2412     0.0000   134.0000 </r>
       <r>   -12.1406     0.0266   134.0027 </r>
       <r>   -12.0399    12.5779   136.0000 </r>
       <r>   -11.9393    34.8585   139.5088 </r>
       <r>   -11.8386     2.7598   140.2778 </r>
       <r>   -11.7379     4.4274   141.4123 </r>
       <r>   -11.6373     3.7215   141.8746 </r>
       <r>   -11.5366     8.4939   144.4222 </r>
       <r>   -11.4360    14.1568   145.9917 </r>
       <r>   -11.3353    59.6072   152.0000 </r>
       <r>   -11.2346     0.0000   152.0000 </r>
       <r>   -11.1340    40.6002   156.0868 </r>
       <r>   -11.0333    20.5379   158.6007 </r>
       <r>   -10.9327    58.9326   165.9993 </r>
       <r>   -10.8320    19.8691   168.0000 </r>
       <r>   -10.7314    28.1515   170.8337 </r>
       <r>   -10.6307    17.0934   173.2207 </r>
       <r>   -10.5300    44.7077   178.0003 </r>
       <r>   -10.4294    17.6288   179.8413 </r>
       <r>   -10.3287     0.0261   180.0026 </r>
       <r>   -10.2281   114.3601   191.5140 </r>
       <r>   -10.1274    10.7163   193.0787 </r>
       <r>   -10.0267     3.6274   193.5651 </r>
       <r>    -9.9261    23.9820   196.0474 </r>
       <r>    -9.8254    44.5396   202.2500 </r>
       <r>    -9.7248     3.0097   202.6363 </r>
       <r>    -9.6241    90.0343   211.7961 </r>
       <r>    -9.5234    10.8431   213.9915 </r>
       <r>    -9.4228     3.6586   214.3683 </r>
       <r>    -9.3221    44.0421   219.3666 </r>
       <r>    -9.2215     0.0264   220.0027 </r>
       <r>    -9.1208    34.7963   224.0035 </r>
       <r>    -9.0202    50.1604   229.6495 </r>
       <r>    -8.9195     0.0000   230.0000 </r>
       <r>    -8.8188     0.0000   230.0000 </r>
       <r>    -8.7182    19.8691   232.0000 </r>
       <r>    -8.6175    15.0578   233.5157 </r>
       <r>    -8.5169    15.6363   236.5740 </r>
       <r>    -8.4162    39.5349   241.1129 </r>
       <r>    -8.3155    81.4531   250.0009 </r>
       <r>    -8.2149    37.7503   254.0000 </r>
       <r>    -8.1142    45.2121   258.5510 </r>
       <r>    -8.0136    19.8691   264.0000 </r>
       <r>    -7.9129     0.0000   264.0000 </r>
       <r>    -7.8122    12.4107   265.2492 </r>
       <r>    -7.7116    79.4280   275.9966 </r>
       <r>    -7.6109    39.7342   280.0000 </r>
       <r>    -7.5103     0.0000   280.0000 </r>
       <r>    -7.4096     0.0000   280.0000 </r>
       <r>    -7.3090     0.0000   280.0000 </r>
       <r>    -7.2083     0.0000   280.0000 </r>
       <r>    -7.1076     0.0000   280.0000 </r>
       <r>    -7.0070     0.0000   280.0000 </r>
       <r>    -6.9063     0.0000   280.0000 </r>
       <r>    -6.8057     0.0000   280.0000 </r>
       <r>    -6.7050     0.0000   280.0000 </r>
       <r>    -6.6043     0.0000   280.0000 </r>
       <r>    -6.5037    59.6073   286.0000 </r>
       <r>    -6.4030    17.6384   287.7755 </r>
       <r>    -6.3024     0.0005   288.0001 </r>
       <r>    -6.2017    39.7376   292.0000 </r>
       <r>    -6.1010    87.4889   300.8065 </r>
       <r>    -6.0004    18.5475   303.8670 </r>
       <r>    -5.8997    32.1149   310.0000 </r>
       <r>    -5.7991    39.7030   313.9965 </r>
       <r>    -5.6984     0.0000   314.0000 </r>
       <r>    -5.5978    39.7382   318.0000 </r>
       <r>    -5.4971     0.0000   318.0000 </r>
       <r>    -5.3964     0.0000   318.0000 </r>
       <r>    -5.2958     5.5986   318.5635 </r>
       <r>    -5.1951     0.0000   324.0000 </r>
       <r>    -5.0945     0.0000   324.0000 </r>
       <r>    -4.9938     0.0000   324.0000 </r>
       <r>    -4.8931     0.0000   324.0000 </r>
       <r>    -4.7925     0.0000   324.0000 </r>
       <r>    -4.6918     0.0000   324.0000 </r>
       <r>    -4.5912     0.0000   324.0000 </r>
       <r>    -4.4905     0.0000   324.0000 </r>
       <r>    -4.3898     0.0000   324.0000 </r>
       <r>    -4.2892     0.0000   324.0000 </r>
       <r>    -4.1885     0.0000   324.0000 </r>
       <r>    -4.0879     0.0000   324.0000 </r>
       <r>    -3.9872     0.0000   324.0000 </r>
       <r>    -3.8866     0.0000   324.0000 </r>
       <r>    -3.7859     0.0000   324.0000 </r>
       <r>    -3.6852     0.0000   324.0000 </r>
       <r>    -3.5846     0.0000   324.0000 </r>
       <r>    -3.4839     0.0000   324.0000 </r>
       <r>    -3.3833     0.0000   324.0000 </r>
       <r>    -3.2826     0.0000   324.0000 </r>
       <r>    -3.1819     0.0000   324.0000 </r>
       <r>    -3.0813     0.0000   324.0000 </r>
       <r>    -2.9806     0.0000   324.0000 </r>
       <r>    -2.8800    39.7318   327.9994 </r>
       <r>    -2.7793     0.0000   328.0000 </r>
       <r>    -2.6786     0.0000   328.0000 </r>
       <r>    -2.5780     0.0000   328.0000 </r>
       <r>    -2.4773     2.0463   328.2060 </r>
       <r>    -2.3767     0.0000   332.0000 </r>
       <r>    -2.2760     0.0000   332.0000 </r>
       <r>    -2.1754     0.0000   332.0000 </r>
       <r>    -2.0747     0.0000   332.0000 </r>
       <r>    -1.9740     0.0000   332.0000 </r>
       <r>    -1.8734     0.0000   332.0000 </r>
       <r>    -1.7727    15.8924   333.5997 </r>
       <r>    -1.6721     0.0000   334.0000 </r>
       <r>    -1.5714     0.0000   334.0000 </r>
       <r>    -1.4707    55.9550   339.6324 </r>
       <r>    -1.3701     0.0000   340.0000 </r>
       <r>    -1.2694    19.8691   342.0000 </r>
       <r>    -1.1688     0.0007   342.0001 </r>
       <r>    -1.0681    59.6065   348.0000 </r>
       <r>    -0.9674     0.0078   348.0008 </r>
       <r>    -0.8668    59.5995   354.0000 </r>
       <r>    -0.7661     0.0000   354.0000 </r>
       <r>    -0.6655     0.0000   354.0000 </r>
       <r>    -0.5648     0.0000   354.0000 </r>
       <r>    -0.4642    79.4764   362.0000 </r>
       <r>    -0.3635    39.7382   366.0000 </r>
       <r>    -0.2628    39.7166   369.9978 </r>
       <r>    -0.1622     0.1764   370.0178 </r>
       <r>    -0.0615    15.5632   372.0000 </r>
       <r>     0.0391    27.8911   374.8075 </r>
       <r>     0.1398    70.7703   384.9581 </r>
       <r>     0.2405    18.8797   387.9004 </r>
       <r>     0.3411    32.4497   393.9997 </r>
       <r>     0.4418    31.4063   397.1613 </r>
       <r>     0.5424    59.0706   404.0462 </r>
       <r>     0.6431    47.9265   410.5243 </r>
       <r>     0.7438    72.3595   418.9173 </r>
       <r>     0.8444    79.7289   428.7256 </r>
       <r>     0.9451    65.4007   437.5834 </r>
       <r>     1.0457    80.3394   447.3538 </r>
       <r>     1.1464     1.9863   448.0000 </r>
       <r>     1.2470     0.0000   448.0000 </r>
       <r>     1.3477     0.0000   448.0000 </r>
       <r>     1.4484     0.0000   448.0000 </r>
       <r>     1.5490     0.0000   448.0000 </r>
       <r>     1.6497     0.0000   448.0000 </r>
       <r>     1.7503     0.0000   448.0000 </r>
       <r>     1.8510     0.0000   448.0000 </r>
       <r>     1.9517     0.0000   448.0000 </r>
       <r>     2.0523     0.0000   448.0000 </r>
       <r>     2.1530     0.0000   448.0000 </r>
       <r>     2.2536     0.0000   448.0000 </r>
       <r>     2.3543     0.0000   448.0000 </r>
       <r>     2.4550     0.0000   448.0000 </r>
      </set>
     </set>
    </array>
   </total>
  </dos>
 </calculation>
 <structure name="finalpos" >
  <crystal>
   <varray name="basis" >
    <v>      29.50172361       0.00000000       0.00000000 </v>
    <v>     -14.75086181      25.54924211       0.00000000 </v>
    <v>       0.00000000       0.00000000      20.00000000 </v>
   </varray>
   <i name="volume">  15074.93358266 </i>
   <varray name="rec_basis" >
    <v>       0.03389632       0.01957005       0.00000000 </v>
    <v>       0.00000000       0.03914010       0.00000000 </v>
    <v>       0.00000000       0.00000000       0.05000000 </v>
   </varray>
  </crystal>
  <varray name="positions" >
   <v>       0.51290417       0.87988210       0.50332799 </v>
   <v>       0.46384403       0.78210817       0.50277559 </v>
   <v>       0.36697793       0.87988210       0.50332799 </v>
   <v>       0.31826414       0.78210817       0.50277559 </v>
   <v>       0.21789183       0.68173586       0.50277559 </v>
   <v>       0.12011790       0.63302207       0.50332799 </v>
   <v>       0.21789183       0.53615597       0.50277559 </v>
   <v>       0.12011790       0.48709583       0.50332799 </v>
   <v>       0.31826414       0.53615597       0.50277559 </v>
   <v>       0.36697793       0.48709583       0.50332799 </v>
   <v>       0.51290417       0.63302207       0.50332799 </v>
   <v>       0.46384403       0.68173586       0.50277559 </v>
   <v>       0.48711388       0.12011472       0.50281635 </v>
   <v>       0.53615836       0.21784540       0.50216128 </v>
   <v>       0.63300083       0.12011472       0.50281635 </v>
   <v>       0.68168704       0.21784540       0.50216128 </v>
   <v>       0.78215460       0.31831296       0.50216128 </v>
   <v>       0.87988528       0.36699917       0.50281635 </v>
   <v>       0.78215460       0.46384164       0.50216128 </v>
   <v>       0.87988528       0.51288612       0.50281635 </v>
   <v>       0.68168704       0.46384164       0.50216128 </v>
   <v>       0.63300083       0.51288612       0.50281635 </v>
   <v>       0.48711388       0.36699917       0.50281635 </v>
   <v>       0.53615836       0.31831296       0.50216128 </v>
   <v>       0.52413452       0.47586548       0.61096844 </v>
   <v>       0.45517323       0.54482677       0.61644553 </v>
   <v>       0.52413452       0.04826904       0.61096844 </v>
   <v>       0.45517323       0.91034646       0.61644553 </v>
   <v>       0.95173096       0.47586548       0.61096844 </v>
   <v>       0.08965354       0.54482677       0.61644553 </v>
   <v>       0.47570884       0.52429116       0.39545966 </v>
   <v>       0.52447248       0.47552752       0.39500135 </v>
   <v>       0.47570884       0.95141767       0.39545966 </v>
   <v>       0.52447248       0.04894496       0.39500135 </v>
   <v>       0.04858233       0.52429116       0.39545966 </v>
   <v>       0.95105504       0.47552752       0.39500135 </v>
   <v>       0.38709327       0.69354663       0.50233650 </v>
   <v>       0.30645337       0.61290673       0.50233650 </v>
   <v>       0.30645337       0.69354663       0.50233650 </v>
   <v>       0.61289140       0.30644570       0.50188548 </v>
   <v>       0.69355430       0.38710860       0.50188548 </v>
   <v>       0.69355430       0.30644570       0.50188548 </v>
   <v>       0.47406604       0.52593396       0.62410478 </v>
   <v>       0.47406604       0.94813209       0.62410478 </v>
   <v>       0.05186791       0.52593396       0.62410478 </v>
   <v>       0.02712210       0.51356105       0.56322895 </v>
   <v>       0.02698333       0.51349166       0.44254566 </v>
   <v>       0.35904617       0.71809234       0.50237465 </v>
   <v>       0.35904617       0.64095383       0.50237465 </v>
   <v>       0.28190766       0.64095383       0.50237465 </v>
   <v>       0.38801715       0.61198285       0.50276318 </v>
   <v>       0.44299849       0.63909948       0.50302073 </v>
   <v>       0.47019227       0.61178968       0.50338315 </v>
   <v>       0.44325516       0.55674484       0.50315915 </v>
   <v>       0.38821032       0.52980773       0.50338315 </v>
   <v>       0.36090052       0.55700151       0.50302073 </v>
   <v>       0.38801715       0.77603430       0.50276318 </v>
   <v>       0.44299849       0.80389900       0.50302073 </v>
   <v>       0.47019227       0.85840259       0.50338315 </v>
   <v>       0.44325516       0.88651032       0.50315915 </v>
   <v>       0.38821032       0.85840259       0.50338315 </v>
   <v>       0.36090052       0.80389900       0.50302073 </v>
   <v>       0.22396570       0.61198285       0.50276318 </v>
   <v>       0.19610100       0.63909948       0.50302073 </v>
   <v>       0.14159741       0.61178968       0.50338315 </v>
   <v>       0.11348968       0.55674484       0.50315915 </v>
   <v>       0.14159741       0.52980773       0.50338315 </v>
   <v>       0.19610100       0.55700151       0.50302073 </v>
   <v>       0.64094275       0.28188550       0.50191043 </v>
   <v>       0.64094275       0.35905725       0.50191043 </v>
   <v>       0.71811450       0.35905725       0.50191043 </v>
   <v>       0.61198104       0.38801896       0.50212680 </v>
   <v>       0.55700385       0.36094929       0.50230510 </v>
   <v>       0.52982406       0.38826589       0.50269039 </v>
   <v>       0.55678193       0.44321807       0.50293745 </v>
   <v>       0.61173411       0.47017594       0.50269039 </v>
   <v>       0.63905071       0.44299615       0.50230510 </v>
   <v>       0.61198104       0.22396207       0.50212680 </v>
   <v>       0.55700385       0.19605457       0.50230510 </v>
   <v>       0.52982406       0.14155818       0.50269039 </v>
   <v>       0.55678193       0.11356387       0.50293745 </v>
   <v>       0.61173411       0.14155818       0.50269039 </v>
   <v>       0.63905071       0.19605457       0.50230510 </v>
   <v>       0.77603793       0.38801896       0.50212680 </v>
   <v>       0.80394543       0.36094929       0.50230510 </v>
   <v>       0.85844182       0.38826589       0.50269039 </v>
   <v>       0.88643613       0.44321807       0.50293745 </v>
   <v>       0.85844182       0.47017594       0.50269039 </v>
   <v>       0.80394543       0.44299615       0.50230510 </v>
   <v>       0.47240789       0.52759211       0.50259746 </v>
   <v>       0.48643895       0.51356105       0.56322895 </v>
   <v>       0.51382376       0.48617624       0.56322870 </v>
   <v>       0.47240789       0.94481578       0.50259746 </v>
   <v>       0.48643895       0.97287790       0.56322895 </v>
   <v>       0.51382376       0.02764752       0.56322870 </v>
   <v>       0.05518422       0.52759211       0.50259746 </v>
   <v>       0.97235248       0.48617624       0.56322870 </v>
   <v>       0.52762752       0.47237248       0.50285332 </v>
   <v>       0.51379981       0.48620019       0.44220267 </v>
   <v>       0.48650834       0.51349166       0.44254566 </v>
   <v>       0.52762752       0.05525503       0.50285332 </v>
   <v>       0.51379981       0.02759962       0.44220267 </v>
   <v>       0.48650834       0.97301667       0.44254566 </v>
   <v>       0.94474497       0.47237248       0.50285332 </v>
   <v>       0.97240038       0.48620019       0.44220267 </v>
  </varray>
 </structure>
</modeling>
