<?xml version="1.0" encoding="ISO-8859-1"?>
<modeling>
 <generator>
  <i name="program" type="string">vasp </i>
  <i name="version" type="string">5.4.4.18Apr17-6-g9f103f2a35  </i>
  <i name="subversion" type="string">(build Jun 07 2020 16:50:00) complex            parallel </i>
  <i name="platform" type="string">LinuxIFC </i>
  <i name="date" type="string">2023 02 15 </i>
  <i name="time" type="string">01:41:33 </i>
 </generator>
 <incar>
  <i type="string" name="SYSTEM">Simulation for cell shape cell volume r</i>
  <i type="int" name="ISTART">     1</i>
  <i type="string" name="PREC">high</i>
  <i type="string" name="ALGO">48</i>
  <i type="int" name="ICHARG">    11</i>
  <i type="int" name="NELM">   200</i>
  <i type="int" name="IBRION">    -1</i>
  <i name="EDIFF">      0.00001000</i>
  <i name="EDIFFG">     -0.01000000</i>
  <i type="int" name="NSW">     0</i>
  <i type="int" name="ISIF">     2</i>
  <i name="ENCUT">    500.00000000</i>
  <i name="POTIM">      0.30000000</i>
  <i type="string" name="LREAL">A</i>
  <i type="int" name="ISMEAR">     0</i>
  <i name="SIGMA">      0.01000000</i>
  <i type="int" name="NWRITE">     0</i>
  <i type="logical" name="LWAVE"> F  </i>
  <i type="logical" name="LCHARG"> F  </i>
  <v type="int" name="KPOINT_BSE">    -1     0     0     0</v>
  <i type="int" name="NELM">   200</i>
  <i type="string" name="GGA">PE</i>
 </incar>
 <structure name="primitive_cell" >
  <crystal>
   <varray name="basis" >
    <v>      29.50184769       0.00000000       0.00000000 </v>
    <v>     -14.75092384      25.54934955       0.00000000 </v>
    <v>       0.00000000       0.00000000      20.00000000 </v>
   </varray>
   <i name="volume">  15075.06038113 </i>
   <varray name="rec_basis" >
    <v>       0.03389618       0.01956997       0.00000000 </v>
    <v>       0.00000000       0.03913994       0.00000000 </v>
    <v>       0.00000000       0.00000000       0.05000000 </v>
   </varray>
  </crystal>
  <varray name="positions" >
   <v>       0.38711355      -0.30644323      -0.49788990 </v>
   <v>       0.35905329      -0.28189343      -0.49789364 </v>
   <v>       0.35905329      -0.35905329      -0.49789364 </v>
   <v>       0.30644323      -0.30644323      -0.49788990 </v>
   <v>       0.30644323      -0.38711355      -0.49788990 </v>
   <v>       0.38800656      -0.38800656      -0.49787483 </v>
   <v>       0.38800656      -0.22398689      -0.49787483 </v>
   <v>       0.46383032      -0.21787558      -0.49785270 </v>
   <v>       0.46383032      -0.31829410      -0.49785270 </v>
   <v>       0.28189343      -0.35905329      -0.49789364 </v>
   <v>       0.44298435      -0.36093211      -0.49784008 </v>
   <v>       0.44298435      -0.19608354      -0.49784008 </v>
   <v>       0.36093211      -0.19608354      -0.49784008 </v>
   <v>       0.36093211      -0.44298435      -0.49784008 </v>
   <v>       0.31829410      -0.21787558      -0.49785270 </v>
   <v>       0.31829410      -0.46383032      -0.49785270 </v>
   <v>       0.22398689      -0.38800656      -0.49787483 </v>
   <v>       0.47016671      -0.38824389      -0.49778824 </v>
   <v>       0.47016671      -0.14158940      -0.49778824 </v>
   <v>       0.21787558      -0.31829410      -0.49785270 </v>
   <v>       0.21787558      -0.46383032      -0.49785270 </v>
   <v>       0.38824389      -0.47016671      -0.49778824 </v>
   <v>       0.38824389      -0.14158940      -0.49778824 </v>
   <v>      -0.48711480      -0.36695240      -0.49775744 </v>
   <v>      -0.48711480      -0.12016239      -0.49775744 </v>
   <v>       0.19608354      -0.44298435      -0.49784008 </v>
   <v>       0.19608354      -0.36093211      -0.49784008 </v>
   <v>       0.44321032      -0.11357935      -0.49775839 </v>
   <v>       0.44321032      -0.44321032      -0.49775839 </v>
   <v>       0.36695240       0.48711480      -0.49775744 </v>
   <v>       0.36695240      -0.12016239      -0.49775744 </v>
   <v>       0.14158940      -0.47016671      -0.49778824 </v>
   <v>       0.14158940      -0.38824389      -0.49778824 </v>
   <v>       0.47234276      -0.47234276      -0.49757782 </v>
   <v>       0.47234276      -0.05531448      -0.49757782 </v>
   <v>       0.11357935      -0.44321032      -0.49775839 </v>
   <v>       0.47515297      -0.47515297      -0.39016969 </v>
   <v>       0.47515297      -0.04969406      -0.39016969 </v>
   <v>       0.47601138      -0.47601138       0.39480581 </v>
   <v>       0.47601138      -0.04797724       0.39480581 </v>
   <v>       0.12016239       0.48711480      -0.49775744 </v>
   <v>       0.12016239      -0.36695240      -0.49775744 </v>
   <v>       0.48614813      -0.48614813      -0.43703661 </v>
   <v>       0.48614813      -0.02770374      -0.43703661 </v>
   <v>       0.48645150      -0.48645150       0.44239870 </v>
   <v>       0.48645150      -0.02709700       0.44239870 </v>
   <v>       0.05531448      -0.47234276      -0.49757782 </v>
   <v>      -0.48624773       0.48624773       0.44363423 </v>
   <v>      -0.48624773       0.02750455       0.44363423 </v>
   <v>      -0.48644891       0.48644891      -0.43482744 </v>
   <v>      -0.48644891       0.02710218      -0.43482744 </v>
   <v>       0.04969406      -0.47515297      -0.39016969 </v>
   <v>       0.04797724      -0.47601138       0.39480581 </v>
   <v>       0.02770374      -0.48614813      -0.43703661 </v>
   <v>      -0.48629475       0.48629475      -0.32683936 </v>
   <v>      -0.48629475       0.02741050      -0.32683936 </v>
   <v>       0.02709700      -0.48645150       0.44239870 </v>
   <v>      -0.47248761       0.47248761      -0.49577271 </v>
   <v>      -0.47248761       0.05502477      -0.49577271 </v>
   <v>      -0.47528509       0.04942983       0.39678874 </v>
   <v>      -0.47528509       0.47528509       0.39678874 </v>
   <v>      -0.47237091       0.47237091      -0.36861273 </v>
   <v>      -0.47237091       0.05525819      -0.36861273 </v>
   <v>      -0.42977438       0.48948321      -0.36345103 </v>
   <v>      -0.42977438       0.08074240      -0.36345103 </v>
   <v>      -0.48948321       0.42977438      -0.36345103 </v>
   <v>      -0.48948321       0.08074240      -0.36345103 </v>
   <v>      -0.02750455       0.48624773       0.44363423 </v>
   <v>      -0.02710218       0.48644891      -0.43482744 </v>
   <v>      -0.44331877       0.11336246      -0.49653297 </v>
   <v>      -0.44331877       0.44331877      -0.49653297 </v>
   <v>      -0.36704012      -0.48707056      -0.49704449 </v>
   <v>      -0.36704012       0.12003044      -0.49704449 </v>
   <v>      -0.02741050       0.48629475      -0.32683936 </v>
   <v>      -0.05502477       0.47248761      -0.49577271 </v>
   <v>      -0.04942983       0.47528509       0.39678874 </v>
   <v>       0.48707056       0.36704012      -0.49704449 </v>
   <v>       0.48707056       0.12003044      -0.49704449 </v>
   <v>      -0.38834865       0.47020452      -0.49706562 </v>
   <v>      -0.38834865       0.14144683      -0.49706562 </v>
   <v>      -0.05525819       0.47237091      -0.36861273 </v>
   <v>      -0.47020452       0.38834865      -0.49706562 </v>
   <v>      -0.47020452       0.14144683      -0.49706562 </v>
   <v>      -0.08074240       0.42977438      -0.36345103 </v>
   <v>      -0.08074240       0.48948321      -0.36345103 </v>
   <v>      -0.11336246       0.44331877      -0.49653297 </v>
   <v>      -0.36101722       0.44303442      -0.49777425 </v>
   <v>      -0.36101722       0.19594836      -0.49777425 </v>
   <v>      -0.44303442       0.36101722      -0.49777425 </v>
   <v>      -0.44303442       0.19594836      -0.49777425 </v>
   <v>      -0.12003044       0.36704012      -0.49704449 </v>
   <v>      -0.12003044      -0.48707056      -0.49704449 </v>
   <v>      -0.31838023       0.46393725      -0.49823803 </v>
   <v>      -0.31838023       0.21768252      -0.49823803 </v>
   <v>      -0.14144683       0.38834865      -0.49706562 </v>
   <v>      -0.14144683       0.47020452      -0.49706562 </v>
   <v>      -0.38804408       0.38804408      -0.49792659 </v>
   <v>      -0.38804408       0.22391184      -0.49792659 </v>
   <v>      -0.46393725       0.31838023      -0.49823803 </v>
   <v>      -0.46393725       0.21768252      -0.49823803 </v>
   <v>      -0.19594836       0.36101722      -0.49777425 </v>
   <v>      -0.19594836       0.44303442      -0.49777425 </v>
   <v>      -0.35906547       0.28186906      -0.49813516 </v>
   <v>      -0.35906547       0.35906547      -0.49813516 </v>
   <v>      -0.21768252       0.46393725      -0.49823803 </v>
   <v>      -0.21768252       0.31838023      -0.49823803 </v>
   <v>      -0.22391184       0.38804408      -0.49792659 </v>
   <v>      -0.30644192       0.38711617      -0.49812688 </v>
   <v>      -0.30644192       0.30644192      -0.49812688 </v>
   <v>      -0.38711617       0.30644192      -0.49812688 </v>
   <v>      -0.28186906       0.35906547      -0.49813516 </v>
  </varray>
 </structure>
 <varray name="primitive_index" >
  <v type="int" >        1 </v>
  <v type="int" >       51 </v>
  <v type="int" >       52 </v>
  <v type="int" >        3 </v>
  <v type="int" >        2 </v>
  <v type="int" >       54 </v>
  <v type="int" >       60 </v>
  <v type="int" >        8 </v>
  <v type="int" >       18 </v>
  <v type="int" >       53 </v>
  <v type="int" >       55 </v>
  <v type="int" >       61 </v>
  <v type="int" >       65 </v>
  <v type="int" >       59 </v>
  <v type="int" >       10 </v>
  <v type="int" >       15 </v>
  <v type="int" >       66 </v>
  <v type="int" >       56 </v>
  <v type="int" >       62 </v>
  <v type="int" >       11 </v>
  <v type="int" >       13 </v>
  <v type="int" >       58 </v>
  <v type="int" >       64 </v>
  <v type="int" >       17 </v>
  <v type="int" >        7 </v>
  <v type="int" >       71 </v>
  <v type="int" >       67 </v>
  <v type="int" >       63 </v>
  <v type="int" >       57 </v>
  <v type="int" >       16 </v>
  <v type="int" >        9 </v>
  <v type="int" >       70 </v>
  <v type="int" >       68 </v>
  <v type="int" >       93 </v>
  <v type="int" >       98 </v>
  <v type="int" >       69 </v>
  <v type="int" >       31 </v>
  <v type="int" >       35 </v>
  <v type="int" >       44 </v>
  <v type="int" >       46 </v>
  <v type="int" >       14 </v>
  <v type="int" >       12 </v>
  <v type="int" >       94 </v>
  <v type="int" >       99 </v>
  <v type="int" >      108 </v>
  <v type="int" >      110 </v>
  <v type="int" >      103 </v>
  <v type="int" >      107 </v>
  <v type="int" >      109 </v>
  <v type="int" >       95 </v>
  <v type="int" >      100 </v>
  <v type="int" >       39 </v>
  <v type="int" >       48 </v>
  <v type="int" >       49 </v>
  <v type="int" >       32 </v>
  <v type="int" >       36 </v>
  <v type="int" >       50 </v>
  <v type="int" >       96 </v>
  <v type="int" >      101 </v>
  <v type="int" >       45 </v>
  <v type="int" >       43 </v>
  <v type="int" >       97 </v>
  <v type="int" >      102 </v>
  <v type="int" >       33 </v>
  <v type="int" >       38 </v>
  <v type="int" >       34 </v>
  <v type="int" >       37 </v>
  <v type="int" >      111 </v>
  <v type="int" >      104 </v>
  <v type="int" >       84 </v>
  <v type="int" >       78 </v>
  <v type="int" >       28 </v>
  <v type="int" >       21 </v>
  <v type="int" >       40 </v>
  <v type="int" >      105 </v>
  <v type="int" >       47 </v>
  <v type="int" >       29 </v>
  <v type="int" >       19 </v>
  <v type="int" >       79 </v>
  <v type="int" >       85 </v>
  <v type="int" >      106 </v>
  <v type="int" >       77 </v>
  <v type="int" >       83 </v>
  <v type="int" >       41 </v>
  <v type="int" >       42 </v>
  <v type="int" >       90 </v>
  <v type="int" >       80 </v>
  <v type="int" >       86 </v>
  <v type="int" >       76 </v>
  <v type="int" >       82 </v>
  <v type="int" >       24 </v>
  <v type="int" >       26 </v>
  <v type="int" >       27 </v>
  <v type="int" >       22 </v>
  <v type="int" >       89 </v>
  <v type="int" >       91 </v>
  <v type="int" >       75 </v>
  <v type="int" >       81 </v>
  <v type="int" >       30 </v>
  <v type="int" >       20 </v>
  <v type="int" >       88 </v>
  <v type="int" >       92 </v>
  <v type="int" >       72 </v>
  <v type="int" >       73 </v>
  <v type="int" >       25 </v>
  <v type="int" >       23 </v>
  <v type="int" >       87 </v>
  <v type="int" >        5 </v>
  <v type="int" >        6 </v>
  <v type="int" >        4 </v>
  <v type="int" >       74 </v>
 </varray>
 <kpoints>
  <generation param="listgenerated">
   <i name="divisions" type="int">      20 </i>
   <v>       0.00000000       0.00000000       0.00000000 </v>
   <v>       0.50000000       0.00000000       0.00000000 </v>
   <v>       0.33333333       0.33333333       0.00000000 </v>
   <v>       0.00000000       0.00000000       0.00000000 </v>
  </generation>
  <varray name="kpointlist" >
   <v>       0.00000000       0.00000000       0.00000000 </v>
   <v>       0.02631579       0.00000000       0.00000000 </v>
   <v>       0.05263158       0.00000000       0.00000000 </v>
   <v>       0.07894737       0.00000000       0.00000000 </v>
   <v>       0.10526316       0.00000000       0.00000000 </v>
   <v>       0.13157895       0.00000000       0.00000000 </v>
   <v>       0.15789474       0.00000000       0.00000000 </v>
   <v>       0.18421053       0.00000000       0.00000000 </v>
   <v>       0.21052632       0.00000000       0.00000000 </v>
   <v>       0.23684211       0.00000000       0.00000000 </v>
   <v>       0.26315789       0.00000000       0.00000000 </v>
   <v>       0.28947368       0.00000000       0.00000000 </v>
   <v>       0.31578947       0.00000000       0.00000000 </v>
   <v>       0.34210526       0.00000000       0.00000000 </v>
   <v>       0.36842105       0.00000000       0.00000000 </v>
   <v>       0.39473684       0.00000000       0.00000000 </v>
   <v>       0.42105263       0.00000000       0.00000000 </v>
   <v>       0.44736842       0.00000000       0.00000000 </v>
   <v>       0.47368421       0.00000000       0.00000000 </v>
   <v>       0.50000000       0.00000000       0.00000000 </v>
   <v>       0.50000000       0.00000000       0.00000000 </v>
   <v>       0.49122807       0.01754386       0.00000000 </v>
   <v>       0.48245614       0.03508772       0.00000000 </v>
   <v>       0.47368421       0.05263158       0.00000000 </v>
   <v>       0.46491228       0.07017544       0.00000000 </v>
   <v>       0.45614035       0.08771930       0.00000000 </v>
   <v>       0.44736842       0.10526316       0.00000000 </v>
   <v>       0.43859649       0.12280702       0.00000000 </v>
   <v>       0.42982456       0.14035088       0.00000000 </v>
   <v>       0.42105263       0.15789474       0.00000000 </v>
   <v>       0.41228070       0.17543860       0.00000000 </v>
   <v>       0.40350877       0.19298246       0.00000000 </v>
   <v>       0.39473684       0.21052632       0.00000000 </v>
   <v>       0.38596491       0.22807018       0.00000000 </v>
   <v>       0.37719298       0.24561404       0.00000000 </v>
   <v>       0.36842105       0.26315789       0.00000000 </v>
   <v>       0.35964912       0.28070175       0.00000000 </v>
   <v>       0.35087719       0.29824561       0.00000000 </v>
   <v>       0.34210526       0.31578947       0.00000000 </v>
   <v>       0.33333333       0.33333333       0.00000000 </v>
   <v>       0.33333333       0.33333333       0.00000000 </v>
   <v>       0.31578947       0.31578947       0.00000000 </v>
   <v>       0.29824561       0.29824561       0.00000000 </v>
   <v>       0.28070175       0.28070175       0.00000000 </v>
   <v>       0.26315789       0.26315789       0.00000000 </v>
   <v>       0.24561404       0.24561404       0.00000000 </v>
   <v>       0.22807018       0.22807018       0.00000000 </v>
   <v>       0.21052632       0.21052632       0.00000000 </v>
   <v>       0.19298246       0.19298246       0.00000000 </v>
   <v>       0.17543860       0.17543860       0.00000000 </v>
   <v>       0.15789474       0.15789474       0.00000000 </v>
   <v>       0.14035088       0.14035088       0.00000000 </v>
   <v>       0.12280702       0.12280702       0.00000000 </v>
   <v>       0.10526316       0.10526316       0.00000000 </v>
   <v>       0.08771930       0.08771930       0.00000000 </v>
   <v>       0.07017544       0.07017544       0.00000000 </v>
   <v>       0.05263158       0.05263158       0.00000000 </v>
   <v>       0.03508772       0.03508772       0.00000000 </v>
   <v>       0.01754386       0.01754386       0.00000000 </v>
   <v>       0.00000000       0.00000000       0.00000000 </v>
  </varray>
  <varray name="weights" >
   <v>       0.01666667 </v>
   <v>       0.01666667 </v>
   <v>       0.01666667 </v>
   <v>       0.01666667 </v>
   <v>       0.01666667 </v>
   <v>       0.01666667 </v>
   <v>       0.01666667 </v>
   <v>       0.01666667 </v>
   <v>       0.01666667 </v>
   <v>       0.01666667 </v>
   <v>       0.01666667 </v>
   <v>       0.01666667 </v>
   <v>       0.01666667 </v>
   <v>       0.01666667 </v>
   <v>       0.01666667 </v>
   <v>       0.01666667 </v>
   <v>       0.01666667 </v>
   <v>       0.01666667 </v>
   <v>       0.01666667 </v>
   <v>       0.01666667 </v>
   <v>       0.01666667 </v>
   <v>       0.01666667 </v>
   <v>       0.01666667 </v>
   <v>       0.01666667 </v>
   <v>       0.01666667 </v>
   <v>       0.01666667 </v>
   <v>       0.01666667 </v>
   <v>       0.01666667 </v>
   <v>       0.01666667 </v>
   <v>       0.01666667 </v>
   <v>       0.01666667 </v>
   <v>       0.01666667 </v>
   <v>       0.01666667 </v>
   <v>       0.01666667 </v>
   <v>       0.01666667 </v>
   <v>       0.01666667 </v>
   <v>       0.01666667 </v>
   <v>       0.01666667 </v>
   <v>       0.01666667 </v>
   <v>       0.01666667 </v>
   <v>       0.01666667 </v>
   <v>       0.01666667 </v>
   <v>       0.01666667 </v>
   <v>       0.01666667 </v>
   <v>       0.01666667 </v>
   <v>       0.01666667 </v>
   <v>       0.01666667 </v>
   <v>       0.01666667 </v>
   <v>       0.01666667 </v>
   <v>       0.01666667 </v>
   <v>       0.01666667 </v>
   <v>       0.01666667 </v>
   <v>       0.01666667 </v>
   <v>       0.01666667 </v>
   <v>       0.01666667 </v>
   <v>       0.01666667 </v>
   <v>       0.01666667 </v>
   <v>       0.01666667 </v>
   <v>       0.01666667 </v>
   <v>       0.01666667 </v>
  </varray>
 </kpoints>
 <parameters>
  <separator name="general" >
   <i type="string" name="SYSTEM">Simulation for cell shape cell volume r</i>
   <i type="logical" name="LCOMPAT"> F  </i>
  </separator>
  <separator name="electronic" >
   <i type="string" name="PREC">high</i>
   <i name="ENMAX">    500.00000000</i>
   <i name="ENAUG">    644.87300000</i>
   <i name="EDIFF">      0.00001000</i>
   <i type="int" name="IALGO">    38</i>
   <i type="int" name="IWAVPR">    10</i>
   <i type="int" name="NBANDS">   224</i>
   <i name="NELECT">    324.00000000</i>
   <i type="int" name="TURBO">     0</i>
   <i type="int" name="IRESTART">     0</i>
   <i type="int" name="NREBOOT">     0</i>
   <i type="int" name="NMIN">     0</i>
   <i name="EREF">      0.00000000</i>
   <separator name="electronic smearing" >
    <i type="int" name="ISMEAR">     0</i>
    <i name="SIGMA">      0.01000000</i>
    <i name="KSPACING">      0.50000000</i>
    <i type="logical" name="KGAMMA"> T  </i>
   </separator>
   <separator name="electronic projectors" >
    <i type="logical" name="LREAL"> T  </i>
    <v name="ROPT">     -0.00040000     -0.00040000     -0.00040000</v>
    <i type="int" name="LMAXPAW">  -100</i>
    <i type="int" name="LMAXMIX">     2</i>
    <i type="logical" name="NLSPLINE"> F  </i>
   </separator>
   <separator name="electronic startup" >
    <i type="int" name="ISTART">     1</i>
    <i type="int" name="ICHARG">    11</i>
    <i type="int" name="INIWAV">     1</i>
   </separator>
   <separator name="electronic spin" >
    <i type="int" name="ISPIN">     1</i>
    <i type="logical" name="LNONCOLLINEAR"> F  </i>
    <v name="MAGMOM">      1.00000000      1.00000000      1.00000000      1.00000000      1.00000000      1.00000000      1.00000000      1.00000000      1.00000000      1.00000000      1.00000000      1.00000000      1.00000000      1.00000000      1.00000000      1.00000000      1.00000000      1.00000000      1.00000000      1.00000000
      1.00000000      1.00000000      1.00000000      1.00000000      1.00000000      1.00000000      1.00000000      1.00000000      1.00000000      1.00000000      1.00000000      1.00000000      1.00000000      1.00000000      1.00000000      1.00000000      1.00000000      1.00000000      1.00000000      1.00000000
      1.00000000      1.00000000      1.00000000      1.00000000      1.00000000      1.00000000      1.00000000      1.00000000      1.00000000      1.00000000      1.00000000      1.00000000      1.00000000      1.00000000      1.00000000      1.00000000      1.00000000      1.00000000      1.00000000      1.00000000
      1.00000000      1.00000000      1.00000000      1.00000000      1.00000000      1.00000000      1.00000000      1.00000000      1.00000000      1.00000000      1.00000000      1.00000000      1.00000000      1.00000000      1.00000000      1.00000000      1.00000000      1.00000000      1.00000000      1.00000000
      1.00000000      1.00000000      1.00000000      1.00000000      1.00000000      1.00000000      1.00000000      1.00000000      1.00000000      1.00000000      1.00000000      1.00000000      1.00000000      1.00000000      1.00000000      1.00000000      1.00000000      1.00000000      1.00000000      1.00000000
      1.00000000      1.00000000      1.00000000      1.00000000      1.00000000      1.00000000      1.00000000      1.00000000      1.00000000      1.00000000      1.00000000</v>
    <i name="NUPDOWN">     -1.00000000</i>
    <i type="logical" name="LSORBIT"> F  </i>
    <v name="SAXIS">      0.00000000      0.00000000      1.00000000</v>
    <i type="logical" name="LSPIRAL"> F  </i>
    <v name="QSPIRAL">      0.00000000      0.00000000      0.00000000</v>
    <i type="logical" name="LZEROZ"> F  </i>
   </separator>
   <separator name="electronic exchange-correlation" >
    <i type="logical" name="LASPH"> F  </i>
    <i type="logical" name="LMETAGGA"> F  </i>
   </separator>
   <separator name="electronic convergence" >
    <i type="int" name="NELM">   200</i>
    <i type="int" name="NELMDL">     0</i>
    <i type="int" name="NELMIN">     2</i>
    <i name="ENINI">    500.00000000</i>
    <separator name="electronic convergence detail" >
     <i type="logical" name="LDIAG"> T  </i>
     <i type="logical" name="LSUBROT"> F  </i>
     <i name="WEIMIN">      0.00000000</i>
     <i name="EBREAK">      0.00000001</i>
     <i name="DEPER">      0.30000000</i>
     <i type="int" name="NRMM">     4</i>
     <i name="TIME">      0.40000000</i>
    </separator>
   </separator>
   <separator name="electronic mixer" >
    <i name="AMIX">      0.40000000</i>
    <i name="BMIX">      1.00000000</i>
    <i name="AMIN">      0.10000000</i>
    <i name="AMIX_MAG">      1.60000000</i>
    <i name="BMIX_MAG">      1.00000000</i>
    <separator name="electronic mixer details" >
     <i type="int" name="IMIX">     4</i>
     <i type="logical" name="MIXFIRST"> F  </i>
     <i type="int" name="MAXMIX">   -45</i>
     <i name="WC">    100.00000000</i>
     <i type="int" name="INIMIX">     1</i>
     <i type="int" name="MIXPRE">     1</i>
     <i type="int" name="MREMOVE">     5</i>
    </separator>
   </separator>
   <separator name="electronic dipolcorrection" >
    <i type="logical" name="LDIPOL"> F  </i>
    <i type="logical" name="LMONO"> F  </i>
    <i type="int" name="IDIPOL">     0</i>
    <i name="EPSILON">      1.00000000</i>
    <v name="DIPOL">   -100.00000000   -100.00000000   -100.00000000</v>
    <i name="EFIELD">      0.00000000</i>
   </separator>
  </separator>
  <separator name="grids" >
   <i type="int" name="NGX">   216</i>
   <i type="int" name="NGY">   216</i>
   <i type="int" name="NGZ">   150</i>
   <i type="int" name="NGXF">   336</i>
   <i type="int" name="NGYF">   336</i>
   <i type="int" name="NGZF">   224</i>
   <i type="logical" name="ADDGRID"> F  </i>
  </separator>
  <separator name="ionic" >
   <i type="int" name="NSW">     0</i>
   <i type="int" name="IBRION">    -1</i>
   <i type="int" name="MDALGO">     0</i>
   <i type="int" name="ISIF">     2</i>
   <i name="PSTRESS">      0.00000000</i>
   <i name="EDIFFG">     -0.01000000</i>
   <i type="int" name="NFREE">     0</i>
   <i name="POTIM">      0.30000000</i>
   <i name="SMASS">     -3.00000000</i>
   <i name="SCALEE">      1.00000000</i>
  </separator>
  <separator name="ionic md" >
   <i name="TEBEG">      0.00010000</i>
   <i name="TEEND">      0.00010000</i>
   <i type="int" name="NBLOCK">     1</i>
   <i type="int" name="KBLOCK">     1</i>
   <i type="int" name="NPACO">   256</i>
   <i name="APACO">     16.00000000</i>
  </separator>
  <separator name="symmetry" >
   <i type="int" name="ISYM">     2</i>
   <i name="SYMPREC">      0.00001000</i>
  </separator>
  <separator name="dos" >
   <i type="int" name="LORBIT">     0</i>
   <v name="RWIGS">     -1.00000000     -1.00000000     -1.00000000</v>
   <i type="int" name="NEDOS">   301</i>
   <i name="EMIN">     10.00000000</i>
   <i name="EMAX">    -10.00000000</i>
   <i name="EFERMI">      0.00000000</i>
  </separator>
  <separator name="writing" >
   <i type="int" name="NWRITE">     0</i>
   <i type="logical" name="LWAVE"> F  </i>
   <i type="logical" name="LDOWNSAMPLE"> F  </i>
   <i type="logical" name="LCHARG"> F  </i>
   <i type="logical" name="LPARD"> F  </i>
   <i type="logical" name="LVTOT"> F  </i>
   <i type="logical" name="LVHAR"> F  </i>
   <i type="logical" name="LELF"> F  </i>
   <i type="logical" name="LOPTICS"> F  </i>
   <v name="STM">      0.00000000      0.00000000      0.00000000      0.00000000      0.00000000      0.00000000      0.00000000</v>
  </separator>
  <separator name="performance" >
   <i type="int" name="NPAR">    16</i>
   <i type="int" name="NSIM">     4</i>
   <i type="int" name="NBLK">    -1</i>
   <i type="logical" name="LPLANE"> T  </i>
   <i type="logical" name="LSCALAPACK"> T  </i>
   <i type="logical" name="LSCAAWARE"> F  </i>
   <i type="logical" name="LSCALU"> F  </i>
   <i type="logical" name="LASYNC"> F  </i>
   <i type="logical" name="LORBITALREAL"> F  </i>
  </separator>
  <separator name="miscellaneous" >
   <i type="int" name="IDIOT">     3</i>
   <i type="int" name="ISPECIAL">     0</i>
   <i type="logical" name="LMUSIC"> F  </i>
   <v name="POMASS">     14.00100000      1.00000000     12.01100000</v>
   <v name="DARWINR">      0.00000000      0.00000000      0.00000000</v>
   <v name="DARWINV">      1.00000000      1.00000000      1.00000000</v>
   <i type="logical" name="LCORR"> T  </i>
  </separator>
  <i type="logical" name="GGA_COMPAT"> T  </i>
  <i type="logical" name="LBERRY"> F  </i>
  <i type="int" name="ICORELEVEL">     0</i>
  <i type="logical" name="LDAU"> F  </i>
  <i type="int" name="I_CONSTRAINED_M">     0</i>
  <separator name="electronic exchange-correlation" >
   <i type="string" name="GGA">PE</i>
   <i type="int" name="VOSKOWN">     0</i>
   <i type="logical" name="LHFCALC"> F  </i>
   <i type="string" name="PRECFOCK"></i>
   <i type="logical" name="LSYMGRAD"> F  </i>
   <i type="logical" name="LHFONE"> F  </i>
   <i type="logical" name="LRHFCALC"> F  </i>
   <i type="logical" name="LTHOMAS"> F  </i>
   <i type="logical" name="LMODELHF"> F  </i>
   <i name="ENCUT4O">     -1.00000000</i>
   <i type="int" name="EXXOEP">     0</i>
   <i type="int" name="FOURORBIT">     0</i>
   <i name="AEXX">      0.00000000</i>
   <i name="HFALPHA">      0.00000000</i>
   <i name="MCALPHA">      0.00000000</i>
   <i name="ALDAX">      1.00000000</i>
   <i name="AGGAX">      1.00000000</i>
   <i name="ALDAC">      1.00000000</i>
   <i name="AGGAC">      1.00000000</i>
   <i type="int" name="NKREDX">     1</i>
   <i type="int" name="NKREDY">     1</i>
   <i type="int" name="NKREDZ">     1</i>
   <i type="logical" name="SHIFTRED"> F  </i>
   <i type="logical" name="ODDONLY"> F  </i>
   <i type="logical" name="EVENONLY"> F  </i>
   <i type="int" name="LMAXFOCK">     0</i>
   <i type="int" name="NMAXFOCKAE">     0</i>
   <i type="logical" name="LFOCKAEDFT"> F  </i>
   <i name="HFSCREEN">      0.00000000</i>
   <i name="HFSCREENC">      0.00000000</i>
   <i type="int" name="NBANDSGWLOW">     0</i>
  </separator>
  <separator name="vdW DFT" >
   <i type="logical" name="LUSE_VDW"> F  </i>
   <i name="Zab_VDW">     -0.84910000</i>
   <i name="PARAM1">      0.12340000</i>
   <i name="PARAM2">      1.00000000</i>
   <i name="PARAM3">      0.00000000</i>
  </separator>
  <separator name="model GW" >
   <i type="int" name="MODEL_GW">     0</i>
   <i name="MODEL_EPS0">     81.48681287</i>
   <i name="MODEL_ALPHA">      1.00000000</i>
  </separator>
  <separator name="linear response parameters" >
   <i type="logical" name="LEPSILON"> F  </i>
   <i type="logical" name="LRPA"> F  </i>
   <i type="logical" name="LNABLA"> F  </i>
   <i type="logical" name="LVEL"> F  </i>
   <i type="int" name="KINTER">     0</i>
   <i name="CSHIFT">      0.10000000</i>
   <i name="OMEGAMAX">     -1.00000000</i>
   <i name="DEG_THRESHOLD">      0.00200000</i>
   <i name="RTIME">     -0.10000000</i>
   <i name="WPLASMAI">      0.00000000</i>
   <v name="DFIELD">      0.00000000      0.00000000      0.00000000</v>
   <v name="WPLASMA">      0.00000000      0.00000000      0.00000000      0.00000000      0.00000000      0.00000000      0.00000000      0.00000000      0.00000000</v>
  </separator>
  <separator name="orbital magnetization" >
   <i type="logical" name="NUCIND"> F  </i>
   <v name="MAGPOS">      0.00000000      0.00000000      0.00000000</v>
   <i type="logical" name="LNICSALL"> T  </i>
   <i type="logical" name="ORBITALMAG"> F  </i>
   <i type="logical" name="LMAGBLOCH"> F  </i>
   <i type="logical" name="LCHIMAG"> F  </i>
   <i type="logical" name="LGAUGE"> T  </i>
   <i type="int" name="MAGATOM">     0</i>
   <v name="MAGDIPOL">      0.00000000      0.00000000      0.00000000</v>
   <v name="AVECCONST">      0.00000000      0.00000000      0.00000000</v>
  </separator>
  <separator name="response functions" >
   <i type="logical" name="LADDER"> F  </i>
   <i type="logical" name="LRPAFORCE"> F  </i>
   <i type="logical" name="LFXC"> F  </i>
   <i type="logical" name="LHARTREE"> T  </i>
   <i type="int" name="IBSE">     0</i>
   <v type="int" name="KPOINT">    -1     0     0     0</v>
   <i type="logical" name="LTCTE"> F  </i>
   <i type="logical" name="LTETE"> F  </i>
   <i type="logical" name="LTRIPLET"> F  </i>
   <i type="logical" name="LFXCEPS"> F  </i>
   <i type="logical" name="LFXHEG"> F  </i>
   <i type="int" name="NATURALO">     2</i>
   <i type="logical" name="L2ORDER"> F  </i>
   <i type="logical" name="LMP2LT"> F  </i>
   <i type="logical" name="LUSEW"> F  </i>
   <i name="ENCUTGW">     -2.00000000</i>
   <i name="ENCUTGWSOFT">     -2.00000000</i>
   <i name="ENCUTLF">     -1.00000000</i>
   <i type="int" name="LMAXMP2">    -1</i>
   <i name="SCISSOR">      0.00000000</i>
   <i type="int" name="NOMEGA">     0</i>
   <i type="int" name="NOMEGAR">     0</i>
   <i type="int" name="NBANDSGW">    -1</i>
   <i type="int" name="NBANDSO">    -1</i>
   <i type="int" name="NBANDSV">    -1</i>
   <i type="int" name="NELM">   200</i>
   <i type="int" name="NELMHF">     1</i>
   <i type="int" name="DIM">     3</i>
   <i type="int" name="ANTIRES">     0</i>
   <i name="OMEGAMAX">    -30.00000000</i>
   <i name="OMEGAMIN">    -30.00000000</i>
   <i name="OMEGATL">   -200.00000000</i>
   <i type="int" name="OMEGAGRID">   140</i>
   <i name="CSHIFT">     -0.10000000</i>
   <i type="logical" name="SELFENERGY"> F  </i>
   <i type="logical" name="LSPECTRAL"> F  </i>
   <i type="logical" name="LSPECTRALGW"> F  </i>
   <i type="logical" name="LSINGLES"> F  </i>
   <i type="logical" name="LFERMIGW"> F  </i>
   <i type="logical" name="ODDONLYGW"> F  </i>
   <i type="logical" name="EVENONLYGW"> F  </i>
   <i type="int" name="NKREDLFX">     1</i>
   <i type="int" name="NKREDLFY">     1</i>
   <i type="int" name="NKREDLFZ">     1</i>
   <i type="int" name="MAXMEM">  2800</i>
   <i type="int" name="TELESCOPE">     0</i>
   <i type="int" name="TAUPAR">     1</i>
   <i type="int" name="OMEGAPAR">    -1</i>
   <i name="LAMBDA">      1.00000000</i>
  </separator>
  <separator name="External order field" >
   <i name="OFIELD_KAPPA">      0.00000000</i>
   <v name="OFIELD_K">      0.00000000      0.00000000      0.00000000</v>
   <i name="OFIELD_Q6_NEAR">      0.00000000</i>
   <i name="OFIELD_Q6_FAR">      0.00000000</i>
   <i name="OFIELD_A">      0.00000000</i>
  </separator>
  <separator name="solvation model" >
   <i type="logical" name="LSOL"> F  </i>
  </separator>
 </parameters>
 <atominfo>
  <atoms>     111 </atoms>
  <types>       3 </types>
  <array name="atoms" >
   <dimension dim="1">ion</dimension>
   <field type="string">element</field>
   <field type="int">atomtype</field>
   <set>
    <rc><c>N </c><c>   1</c></rc>
    <rc><c>N </c><c>   1</c></rc>
    <rc><c>N </c><c>   1</c></rc>
    <rc><c>N </c><c>   1</c></rc>
    <rc><c>N </c><c>   1</c></rc>
    <rc><c>N </c><c>   1</c></rc>
    <rc><c>H </c><c>   2</c></rc>
    <rc><c>H </c><c>   2</c></rc>
    <rc><c>H </c><c>   2</c></rc>
    <rc><c>H </c><c>   2</c></rc>
    <rc><c>H </c><c>   2</c></rc>
    <rc><c>H </c><c>   2</c></rc>
    <rc><c>H </c><c>   2</c></rc>
    <rc><c>H </c><c>   2</c></rc>
    <rc><c>H </c><c>   2</c></rc>
    <rc><c>H </c><c>   2</c></rc>
    <rc><c>H </c><c>   2</c></rc>
    <rc><c>H </c><c>   2</c></rc>
    <rc><c>H </c><c>   2</c></rc>
    <rc><c>H </c><c>   2</c></rc>
    <rc><c>H </c><c>   2</c></rc>
    <rc><c>H </c><c>   2</c></rc>
    <rc><c>H </c><c>   2</c></rc>
    <rc><c>H </c><c>   2</c></rc>
    <rc><c>H </c><c>   2</c></rc>
    <rc><c>H </c><c>   2</c></rc>
    <rc><c>H </c><c>   2</c></rc>
    <rc><c>H </c><c>   2</c></rc>
    <rc><c>H </c><c>   2</c></rc>
    <rc><c>H </c><c>   2</c></rc>
    <rc><c>H </c><c>   2</c></rc>
    <rc><c>H </c><c>   2</c></rc>
    <rc><c>H </c><c>   2</c></rc>
    <rc><c>H </c><c>   2</c></rc>
    <rc><c>H </c><c>   2</c></rc>
    <rc><c>H </c><c>   2</c></rc>
    <rc><c>H </c><c>   2</c></rc>
    <rc><c>H </c><c>   2</c></rc>
    <rc><c>H </c><c>   2</c></rc>
    <rc><c>H </c><c>   2</c></rc>
    <rc><c>H </c><c>   2</c></rc>
    <rc><c>H </c><c>   2</c></rc>
    <rc><c>H </c><c>   2</c></rc>
    <rc><c>H </c><c>   2</c></rc>
    <rc><c>H </c><c>   2</c></rc>
    <rc><c>H </c><c>   2</c></rc>
    <rc><c>H </c><c>   2</c></rc>
    <rc><c>H </c><c>   2</c></rc>
    <rc><c>C </c><c>   3</c></rc>
    <rc><c>C </c><c>   3</c></rc>
    <rc><c>C </c><c>   3</c></rc>
    <rc><c>C </c><c>   3</c></rc>
    <rc><c>C </c><c>   3</c></rc>
    <rc><c>C </c><c>   3</c></rc>
    <rc><c>C </c><c>   3</c></rc>
    <rc><c>C </c><c>   3</c></rc>
    <rc><c>C </c><c>   3</c></rc>
    <rc><c>C </c><c>   3</c></rc>
    <rc><c>C </c><c>   3</c></rc>
    <rc><c>C </c><c>   3</c></rc>
    <rc><c>C </c><c>   3</c></rc>
    <rc><c>C </c><c>   3</c></rc>
    <rc><c>C </c><c>   3</c></rc>
    <rc><c>C </c><c>   3</c></rc>
    <rc><c>C </c><c>   3</c></rc>
    <rc><c>C </c><c>   3</c></rc>
    <rc><c>C </c><c>   3</c></rc>
    <rc><c>C </c><c>   3</c></rc>
    <rc><c>C </c><c>   3</c></rc>
    <rc><c>C </c><c>   3</c></rc>
    <rc><c>C </c><c>   3</c></rc>
    <rc><c>C </c><c>   3</c></rc>
    <rc><c>C </c><c>   3</c></rc>
    <rc><c>C </c><c>   3</c></rc>
    <rc><c>C </c><c>   3</c></rc>
    <rc><c>C </c><c>   3</c></rc>
    <rc><c>C </c><c>   3</c></rc>
    <rc><c>C </c><c>   3</c></rc>
    <rc><c>C </c><c>   3</c></rc>
    <rc><c>C </c><c>   3</c></rc>
    <rc><c>C </c><c>   3</c></rc>
    <rc><c>C </c><c>   3</c></rc>
    <rc><c>C </c><c>   3</c></rc>
    <rc><c>C </c><c>   3</c></rc>
    <rc><c>C </c><c>   3</c></rc>
    <rc><c>C </c><c>   3</c></rc>
    <rc><c>C </c><c>   3</c></rc>
    <rc><c>C </c><c>   3</c></rc>
    <rc><c>C </c><c>   3</c></rc>
    <rc><c>C </c><c>   3</c></rc>
    <rc><c>C </c><c>   3</c></rc>
    <rc><c>C </c><c>   3</c></rc>
    <rc><c>C </c><c>   3</c></rc>
    <rc><c>C </c><c>   3</c></rc>
    <rc><c>C </c><c>   3</c></rc>
    <rc><c>C </c><c>   3</c></rc>
    <rc><c>C </c><c>   3</c></rc>
    <rc><c>C </c><c>   3</c></rc>
    <rc><c>C </c><c>   3</c></rc>
    <rc><c>C </c><c>   3</c></rc>
    <rc><c>C </c><c>   3</c></rc>
    <rc><c>C </c><c>   3</c></rc>
    <rc><c>C </c><c>   3</c></rc>
    <rc><c>C </c><c>   3</c></rc>
    <rc><c>C </c><c>   3</c></rc>
    <rc><c>C </c><c>   3</c></rc>
    <rc><c>C </c><c>   3</c></rc>
    <rc><c>C </c><c>   3</c></rc>
    <rc><c>C </c><c>   3</c></rc>
    <rc><c>C </c><c>   3</c></rc>
    <rc><c>C </c><c>   3</c></rc>
   </set>
  </array>
  <array name="atomtypes" >
   <dimension dim="1">type</dimension>
   <field type="int">atomspertype</field>
   <field type="string">element</field>
   <field>mass</field>
   <field>valence</field>
   <field type="string">pseudopotential</field>
   <set>
    <rc><c>   6</c><c>N </c><c>     14.00100000</c><c>      5.00000000</c><c>  PAW_PBE N 08Apr2002                   </c></rc>
    <rc><c>  42</c><c>H </c><c>      1.00000000</c><c>      1.00000000</c><c>  PAW_PBE H 15Jun2001                   </c></rc>
    <rc><c>  63</c><c>C </c><c>     12.01100000</c><c>      4.00000000</c><c>  PAW_PBE C 08Apr2002                   </c></rc>
   </set>
  </array>
 </atominfo>
 <structure name="initialpos" >
  <crystal>
   <varray name="basis" >
    <v>      29.50184769       0.00000000       0.00000000 </v>
    <v>     -14.75092384      25.54934955       0.00000000 </v>
    <v>       0.00000000       0.00000000      20.00000000 </v>
   </varray>
   <i name="volume">  15075.06038113 </i>
   <varray name="rec_basis" >
    <v>       0.03389618       0.01956997       0.00000000 </v>
    <v>       0.00000000       0.03913994       0.00000000 </v>
    <v>       0.00000000       0.00000000       0.05000000 </v>
   </varray>
  </crystal>
  <varray name="positions" >
   <v>       0.38711355       0.69355677       0.50211010 </v>
   <v>       0.30644323       0.61288645       0.50211010 </v>
   <v>       0.30644323       0.69355677       0.50211010 </v>
   <v>       0.61288383       0.30644192       0.50187312 </v>
   <v>       0.69355808       0.38711617       0.50187312 </v>
   <v>       0.69355808       0.30644192       0.50187312 </v>
   <v>       0.51288520       0.87983761       0.50224256 </v>
   <v>       0.46383032       0.78212442       0.50214730 </v>
   <v>       0.36695240       0.87983761       0.50224256 </v>
   <v>       0.31829410       0.78212442       0.50214730 </v>
   <v>       0.21787558       0.68170590       0.50214730 </v>
   <v>       0.12016239       0.63304760       0.50224256 </v>
   <v>       0.21787558       0.53616968       0.50214730 </v>
   <v>       0.12016239       0.48711480       0.50224256 </v>
   <v>       0.31829410       0.53616968       0.50214730 </v>
   <v>       0.36695240       0.48711480       0.50224256 </v>
   <v>       0.51288520       0.63304760       0.50224256 </v>
   <v>       0.46383032       0.68170590       0.50214730 </v>
   <v>       0.48707056       0.12003044       0.50295551 </v>
   <v>       0.53606275       0.21768252       0.50176197 </v>
   <v>       0.63295988       0.12003044       0.50295551 </v>
   <v>       0.68161977       0.21768252       0.50176197 </v>
   <v>       0.78231748       0.31838023       0.50176197 </v>
   <v>       0.87996956       0.36704012       0.50295551 </v>
   <v>       0.78231748       0.46393725       0.50176197 </v>
   <v>       0.87996956       0.51292944       0.50295551 </v>
   <v>       0.68161977       0.46393725       0.50176197 </v>
   <v>       0.63295988       0.51292944       0.50295551 </v>
   <v>       0.48707056       0.36704012       0.50295551 </v>
   <v>       0.53606275       0.31838023       0.50176197 </v>
   <v>       0.47515297       0.52484703       0.60983031 </v>
   <v>       0.51370525       0.48629475       0.67316064 </v>
   <v>       0.57022562       0.48948321       0.63654897 </v>
   <v>       0.51051679       0.42977438       0.63654897 </v>
   <v>       0.47515297       0.95030594       0.60983031 </v>
   <v>       0.51370525       0.02741050       0.67316064 </v>
   <v>       0.51051679       0.08074240       0.63654897 </v>
   <v>       0.57022562       0.08074240       0.63654897 </v>
   <v>       0.04969406       0.52484703       0.60983031 </v>
   <v>       0.97258950       0.48629475       0.67316064 </v>
   <v>       0.91925760       0.42977438       0.63654897 </v>
   <v>       0.91925760       0.48948321       0.63654897 </v>
   <v>       0.52471491       0.47528509       0.39678874 </v>
   <v>       0.47601138       0.52398862       0.39480581 </v>
   <v>       0.52471491       0.04942983       0.39678874 </v>
   <v>       0.47601138       0.95202276       0.39480581 </v>
   <v>       0.95057017       0.47528509       0.39678874 </v>
   <v>       0.04797724       0.52398862       0.39480581 </v>
   <v>       0.02770374       0.51385187       0.56296339 </v>
   <v>       0.02709700       0.51354850       0.44239870 </v>
   <v>       0.35905329       0.71810657       0.50210636 </v>
   <v>       0.35905329       0.64094671       0.50210636 </v>
   <v>       0.28189343       0.64094671       0.50210636 </v>
   <v>       0.38800656       0.61199344       0.50212517 </v>
   <v>       0.44298435       0.63906789       0.50215992 </v>
   <v>       0.47016671       0.61175611       0.50221176 </v>
   <v>       0.44321032       0.55678968       0.50224161 </v>
   <v>       0.38824389       0.52983329       0.50221176 </v>
   <v>       0.36093211       0.55701565       0.50215992 </v>
   <v>       0.38800656       0.77601311       0.50212517 </v>
   <v>       0.44298435       0.80391646       0.50215992 </v>
   <v>       0.47016671       0.85841060       0.50221176 </v>
   <v>       0.44321032       0.88642065       0.50224161 </v>
   <v>       0.38824389       0.85841060       0.50221176 </v>
   <v>       0.36093211       0.80391646       0.50215992 </v>
   <v>       0.22398689       0.61199344       0.50212517 </v>
   <v>       0.19608354       0.63906789       0.50215992 </v>
   <v>       0.14158940       0.61175611       0.50221176 </v>
   <v>       0.11357935       0.55678968       0.50224161 </v>
   <v>       0.14158940       0.52983329       0.50221176 </v>
   <v>       0.19608354       0.55701565       0.50215992 </v>
   <v>       0.64093453       0.28186906       0.50186484 </v>
   <v>       0.64093453       0.35906547       0.50186484 </v>
   <v>       0.71813094       0.35906547       0.50186484 </v>
   <v>       0.61195592       0.38804408       0.50207341 </v>
   <v>       0.55696558       0.36101722       0.50222575 </v>
   <v>       0.52979548       0.38834865       0.50293438 </v>
   <v>       0.55668123       0.44331877       0.50346703 </v>
   <v>       0.61165135       0.47020452       0.50293438 </v>
   <v>       0.63898278       0.44303442       0.50222575 </v>
   <v>       0.61195592       0.22391184       0.50207341 </v>
   <v>       0.55696558       0.19594836       0.50222575 </v>
   <v>       0.52979548       0.14144683       0.50293438 </v>
   <v>       0.55668123       0.11336246       0.50346703 </v>
   <v>       0.61165135       0.14144683       0.50293438 </v>
   <v>       0.63898278       0.19594836       0.50222575 </v>
   <v>       0.77608816       0.38804408       0.50207341 </v>
   <v>       0.80405164       0.36101722       0.50222575 </v>
   <v>       0.85855317       0.38834865       0.50293438 </v>
   <v>       0.88663754       0.44331877       0.50346703 </v>
   <v>       0.85855317       0.47020452       0.50293438 </v>
   <v>       0.80405164       0.44303442       0.50222575 </v>
   <v>       0.47234276       0.52765724       0.50242218 </v>
   <v>       0.48614813       0.51385187       0.56296339 </v>
   <v>       0.51355109       0.48644891       0.56517256 </v>
   <v>       0.52751239       0.47248761       0.50422729 </v>
   <v>       0.52762909       0.47237091       0.63138727 </v>
   <v>       0.47234276       0.94468552       0.50242218 </v>
   <v>       0.48614813       0.97229626       0.56296339 </v>
   <v>       0.51355109       0.02710218       0.56517256 </v>
   <v>       0.52751239       0.05502477       0.50422729 </v>
   <v>       0.52762909       0.05525819       0.63138727 </v>
   <v>       0.05531448       0.52765724       0.50242218 </v>
   <v>       0.97289782       0.48644891       0.56517256 </v>
   <v>       0.94497523       0.47248761       0.50422729 </v>
   <v>       0.94474181       0.47237091       0.63138727 </v>
   <v>       0.51375227       0.48624773       0.44363423 </v>
   <v>       0.48645150       0.51354850       0.44239870 </v>
   <v>       0.51375227       0.02750455       0.44363423 </v>
   <v>       0.48645150       0.97290300       0.44239870 </v>
   <v>       0.97249545       0.48624773       0.44363423 </v>
  </varray>
 </structure>
 <calculation>
  <scstep>
   <time name="dav">  551.60  558.44</time>
   <time name="total">  551.87  558.71</time>
   <energy>
    <i name="alphaZ">     32.78512216 </i>
    <i name="ewald">  38656.46941078 </i>
    <i name="hartreedc"> -47945.78817772 </i>
    <i name="XCdc">   1099.67201996 </i>
    <i name="pawpsdc">  29447.86236285 </i>
    <i name="pawaedc"> -29500.33935451 </i>
    <i name="eentropy">     -0.00000000 </i>
    <i name="bandstr">  -3944.15051499 </i>
    <i name="atom">  11381.98971700 </i>
    <i name="e_fr_energy">   -771.49941449 </i>
    <i name="e_wo_entrp">   -771.49941449 </i>
    <i name="e_0_energy">   -771.49941449 </i>
   </energy>
  </scstep>
  <scstep>
   <time name="dav">  627.46  635.30</time>
   <time name="total">  627.46  635.31</time>
   <energy>
    <i name="e_fr_energy">   -771.88780579 </i>
    <i name="e_wo_entrp">   -771.88780579 </i>
    <i name="e_0_energy">   -771.88780579 </i>
   </energy>
  </scstep>
  <scstep>
   <time name="dav">  693.58  702.27</time>
   <time name="total">  693.58  702.27</time>
   <energy>
    <i name="e_fr_energy">   -771.89863760 </i>
    <i name="e_wo_entrp">   -771.89863760 </i>
    <i name="e_0_energy">   -771.89863760 </i>
   </energy>
  </scstep>
  <scstep>
   <time name="dav">  625.30  633.19</time>
   <time name="total">  625.30  633.19</time>
   <energy>
    <i name="e_fr_energy">   -771.89880510 </i>
    <i name="e_wo_entrp">   -771.89880510 </i>
    <i name="e_0_energy">   -771.89880510 </i>
   </energy>
  </scstep>
  <scstep>
   <time name="dav">  574.86  582.19</time>
   <time name="total">  574.86  582.19</time>
   <energy>
    <i name="alphaZ">     32.78512216 </i>
    <i name="ewald">  38656.46941078 </i>
    <i name="hartreedc"> -47945.78817772 </i>
    <i name="XCdc">   1099.67201996 </i>
    <i name="pawpsdc">  29447.86236285 </i>
    <i name="pawaedc"> -29500.33935451 </i>
    <i name="eentropy">     -0.00000000 </i>
    <i name="bandstr">  -3944.54991341 </i>
    <i name="atom">  11381.98971700 </i>
    <i name="e_fr_energy">   -771.89881290 </i>
    <i name="e_wo_entrp">   -771.89881290 </i>
    <i name="e_0_energy">   -771.89881290 </i>
   </energy>
  </scstep>
  <structure>
   <crystal>
    <varray name="basis" >
     <v>      29.50184769       0.00000000       0.00000000 </v>
     <v>     -14.75092384      25.54934955       0.00000000 </v>
     <v>       0.00000000       0.00000000      20.00000000 </v>
    </varray>
    <i name="volume">  15075.06038113 </i>
    <varray name="rec_basis" >
     <v>       0.03389618       0.01956997       0.00000000 </v>
     <v>       0.00000000       0.03913994       0.00000000 </v>
     <v>       0.00000000       0.00000000       0.05000000 </v>
    </varray>
   </crystal>
   <varray name="positions" >
    <v>       0.38711355       0.69355677       0.50211010 </v>
    <v>       0.30644323       0.61288645       0.50211010 </v>
    <v>       0.30644323       0.69355677       0.50211010 </v>
    <v>       0.61288383       0.30644192       0.50187312 </v>
    <v>       0.69355808       0.38711617       0.50187312 </v>
    <v>       0.69355808       0.30644192       0.50187312 </v>
    <v>       0.51288520       0.87983761       0.50224256 </v>
    <v>       0.46383032       0.78212442       0.50214730 </v>
    <v>       0.36695240       0.87983761       0.50224256 </v>
    <v>       0.31829410       0.78212442       0.50214730 </v>
    <v>       0.21787558       0.68170590       0.50214730 </v>
    <v>       0.12016239       0.63304760       0.50224256 </v>
    <v>       0.21787558       0.53616968       0.50214730 </v>
    <v>       0.12016239       0.48711480       0.50224256 </v>
    <v>       0.31829410       0.53616968       0.50214730 </v>
    <v>       0.36695240       0.48711480       0.50224256 </v>
    <v>       0.51288520       0.63304760       0.50224256 </v>
    <v>       0.46383032       0.68170590       0.50214730 </v>
    <v>       0.48707056       0.12003044       0.50295551 </v>
    <v>       0.53606275       0.21768252       0.50176197 </v>
    <v>       0.63295988       0.12003044       0.50295551 </v>
    <v>       0.68161977       0.21768252       0.50176197 </v>
    <v>       0.78231748       0.31838023       0.50176197 </v>
    <v>       0.87996956       0.36704012       0.50295551 </v>
    <v>       0.78231748       0.46393725       0.50176197 </v>
    <v>       0.87996956       0.51292944       0.50295551 </v>
    <v>       0.68161977       0.46393725       0.50176197 </v>
    <v>       0.63295988       0.51292944       0.50295551 </v>
    <v>       0.48707056       0.36704012       0.50295551 </v>
    <v>       0.53606275       0.31838023       0.50176197 </v>
    <v>       0.47515297       0.52484703       0.60983031 </v>
    <v>       0.51370525       0.48629475       0.67316064 </v>
    <v>       0.57022562       0.48948321       0.63654897 </v>
    <v>       0.51051679       0.42977438       0.63654897 </v>
    <v>       0.47515297       0.95030594       0.60983031 </v>
    <v>       0.51370525       0.02741050       0.67316064 </v>
    <v>       0.51051679       0.08074240       0.63654897 </v>
    <v>       0.57022562       0.08074240       0.63654897 </v>
    <v>       0.04969406       0.52484703       0.60983031 </v>
    <v>       0.97258950       0.48629475       0.67316064 </v>
    <v>       0.91925760       0.42977438       0.63654897 </v>
    <v>       0.91925760       0.48948321       0.63654897 </v>
    <v>       0.52471491       0.47528509       0.39678874 </v>
    <v>       0.47601138       0.52398862       0.39480581 </v>
    <v>       0.52471491       0.04942983       0.39678874 </v>
    <v>       0.47601138       0.95202276       0.39480581 </v>
    <v>       0.95057017       0.47528509       0.39678874 </v>
    <v>       0.04797724       0.52398862       0.39480581 </v>
    <v>       0.02770374       0.51385187       0.56296339 </v>
    <v>       0.02709700       0.51354850       0.44239870 </v>
    <v>       0.35905329       0.71810657       0.50210636 </v>
    <v>       0.35905329       0.64094671       0.50210636 </v>
    <v>       0.28189343       0.64094671       0.50210636 </v>
    <v>       0.38800656       0.61199344       0.50212517 </v>
    <v>       0.44298435       0.63906789       0.50215992 </v>
    <v>       0.47016671       0.61175611       0.50221176 </v>
    <v>       0.44321032       0.55678968       0.50224161 </v>
    <v>       0.38824389       0.52983329       0.50221176 </v>
    <v>       0.36093211       0.55701565       0.50215992 </v>
    <v>       0.38800656       0.77601311       0.50212517 </v>
    <v>       0.44298435       0.80391646       0.50215992 </v>
    <v>       0.47016671       0.85841060       0.50221176 </v>
    <v>       0.44321032       0.88642065       0.50224161 </v>
    <v>       0.38824389       0.85841060       0.50221176 </v>
    <v>       0.36093211       0.80391646       0.50215992 </v>
    <v>       0.22398689       0.61199344       0.50212517 </v>
    <v>       0.19608354       0.63906789       0.50215992 </v>
    <v>       0.14158940       0.61175611       0.50221176 </v>
    <v>       0.11357935       0.55678968       0.50224161 </v>
    <v>       0.14158940       0.52983329       0.50221176 </v>
    <v>       0.19608354       0.55701565       0.50215992 </v>
    <v>       0.64093453       0.28186906       0.50186484 </v>
    <v>       0.64093453       0.35906547       0.50186484 </v>
    <v>       0.71813094       0.35906547       0.50186484 </v>
    <v>       0.61195592       0.38804408       0.50207341 </v>
    <v>       0.55696558       0.36101722       0.50222575 </v>
    <v>       0.52979548       0.38834865       0.50293438 </v>
    <v>       0.55668123       0.44331877       0.50346703 </v>
    <v>       0.61165135       0.47020452       0.50293438 </v>
    <v>       0.63898278       0.44303442       0.50222575 </v>
    <v>       0.61195592       0.22391184       0.50207341 </v>
    <v>       0.55696558       0.19594836       0.50222575 </v>
    <v>       0.52979548       0.14144683       0.50293438 </v>
    <v>       0.55668123       0.11336246       0.50346703 </v>
    <v>       0.61165135       0.14144683       0.50293438 </v>
    <v>       0.63898278       0.19594836       0.50222575 </v>
    <v>       0.77608816       0.38804408       0.50207341 </v>
    <v>       0.80405164       0.36101722       0.50222575 </v>
    <v>       0.85855317       0.38834865       0.50293438 </v>
    <v>       0.88663754       0.44331877       0.50346703 </v>
    <v>       0.85855317       0.47020452       0.50293438 </v>
    <v>       0.80405164       0.44303442       0.50222575 </v>
    <v>       0.47234276       0.52765724       0.50242218 </v>
    <v>       0.48614813       0.51385187       0.56296339 </v>
    <v>       0.51355109       0.48644891       0.56517256 </v>
    <v>       0.52751239       0.47248761       0.50422729 </v>
    <v>       0.52762909       0.47237091       0.63138727 </v>
    <v>       0.47234276       0.94468552       0.50242218 </v>
    <v>       0.48614813       0.97229626       0.56296339 </v>
    <v>       0.51355109       0.02710218       0.56517256 </v>
    <v>       0.52751239       0.05502477       0.50422729 </v>
    <v>       0.52762909       0.05525819       0.63138727 </v>
    <v>       0.05531448       0.52765724       0.50242218 </v>
    <v>       0.97289782       0.48644891       0.56517256 </v>
    <v>       0.94497523       0.47248761       0.50422729 </v>
    <v>       0.94474181       0.47237091       0.63138727 </v>
    <v>       0.51375227       0.48624773       0.44363423 </v>
    <v>       0.48645150       0.51354850       0.44239870 </v>
    <v>       0.51375227       0.02750455       0.44363423 </v>
    <v>       0.48645150       0.97290300       0.44239870 </v>
    <v>       0.97249545       0.48624773       0.44363423 </v>
   </varray>
  </structure>
  <varray name="forces" >
   <v>      -0.00247876      -0.00143111      -0.00077333 </v>
   <v>      -0.00000000       0.00286223      -0.00077333 </v>
   <v>       0.00247876      -0.00143111      -0.00077333 </v>
   <v>       0.00452135       0.00261040      -0.00207584 </v>
   <v>       0.00000000      -0.00522080      -0.00207584 </v>
   <v>      -0.00452135       0.00261040      -0.00207584 </v>
   <v>      -0.00525068       0.00173277      -0.00046123 </v>
   <v>       0.00029327       0.00055480      -0.00018299 </v>
   <v>       0.00525068       0.00173277      -0.00046123 </v>
   <v>      -0.00029327       0.00055480      -0.00018299 </v>
   <v>      -0.00062710      -0.00002342      -0.00018299 </v>
   <v>       0.00112472      -0.00541361      -0.00046123 </v>
   <v>      -0.00033383      -0.00053138      -0.00018299 </v>
   <v>      -0.00412596       0.00368084      -0.00046123 </v>
   <v>       0.00033383      -0.00053138      -0.00018299 </v>
   <v>       0.00412596       0.00368084      -0.00046123 </v>
   <v>      -0.00112472      -0.00541361      -0.00046123 </v>
   <v>       0.00062710      -0.00002342      -0.00018299 </v>
   <v>       0.00068519       0.00147451       0.00342997 </v>
   <v>      -0.00143181       0.00433390       0.00288644 </v>
   <v>      -0.00068519       0.00147451       0.00342997 </v>
   <v>       0.00143181       0.00433390       0.00288644 </v>
   <v>      -0.00303736      -0.00340693       0.00288644 </v>
   <v>      -0.00161956      -0.00014386       0.00342997 </v>
   <v>      -0.00446917      -0.00092697       0.00288644 </v>
   <v>      -0.00093437      -0.00133065       0.00342997 </v>
   <v>       0.00446917      -0.00092697       0.00288644 </v>
   <v>       0.00093437      -0.00133065       0.00342997 </v>
   <v>       0.00161956      -0.00014386       0.00342997 </v>
   <v>       0.00303736      -0.00340693       0.00288644 </v>
   <v>       0.00829258      -0.00478772      -0.00268978 </v>
   <v>       0.00033500      -0.00019341      -0.00036667 </v>
   <v>       0.00576151      -0.00033606      -0.00433226 </v>
   <v>       0.00317179      -0.00482159      -0.00433226 </v>
   <v>      -0.00000000       0.00957544      -0.00268978 </v>
   <v>      -0.00000000       0.00038682      -0.00036667 </v>
   <v>      -0.00258972       0.00515765      -0.00433226 </v>
   <v>       0.00258972       0.00515765      -0.00433226 </v>
   <v>      -0.00829258      -0.00478772      -0.00268978 </v>
   <v>      -0.00033500      -0.00019341      -0.00036667 </v>
   <v>      -0.00317179      -0.00482159      -0.00433226 </v>
   <v>      -0.00576151      -0.00033606      -0.00433226 </v>
   <v>       0.00235435      -0.00135928      -0.00092633 </v>
   <v>       0.00215779      -0.00124580       0.00028354 </v>
   <v>      -0.00000000       0.00271857      -0.00092633 </v>
   <v>      -0.00000000       0.00249160       0.00028354 </v>
   <v>      -0.00235435      -0.00135928      -0.00092633 </v>
   <v>      -0.00215779      -0.00124580       0.00028354 </v>
   <v>       0.00158314       0.00091402      -0.00303825 </v>
   <v>       0.00460329       0.00265771      -0.00307461 </v>
   <v>      -0.00000000       0.00539064       0.00166259 </v>
   <v>       0.00466843      -0.00269532       0.00166259 </v>
   <v>      -0.00466843      -0.00269532       0.00166259 </v>
   <v>       0.00163397      -0.00094337       0.00260311 </v>
   <v>       0.00210826       0.00111160      -0.00160206 </v>
   <v>      -0.00143586      -0.00283026       0.00051559 </v>
   <v>      -0.00168296       0.00097166      -0.00234695 </v>
   <v>       0.00173315       0.00265862       0.00051559 </v>
   <v>       0.00009145      -0.00238160      -0.00160206 </v>
   <v>      -0.00000000       0.00188675       0.00260311 </v>
   <v>       0.00201680       0.00127000      -0.00160206 </v>
   <v>      -0.00316900       0.00017164       0.00051559 </v>
   <v>       0.00000000      -0.00194331      -0.00234695 </v>
   <v>       0.00316900       0.00017164       0.00051559 </v>
   <v>      -0.00201680       0.00127000      -0.00160206 </v>
   <v>      -0.00163397      -0.00094337       0.00260311 </v>
   <v>      -0.00210826       0.00111160      -0.00160206 </v>
   <v>       0.00143586      -0.00283026       0.00051559 </v>
   <v>       0.00168296       0.00097166      -0.00234695 </v>
   <v>      -0.00173315       0.00265862       0.00051559 </v>
   <v>      -0.00009145      -0.00238160      -0.00160206 </v>
   <v>       0.00000000      -0.00587144       0.00073872 </v>
   <v>      -0.00508482       0.00293572       0.00073872 </v>
   <v>       0.00508482       0.00293572       0.00073872 </v>
   <v>       0.00098707      -0.00056988       0.00208430 </v>
   <v>      -0.00098482      -0.00173531       0.00209329 </v>
   <v>       0.00262647       0.00077659       0.00380380 </v>
   <v>      -0.00305119       0.00176161      -0.00148072 </v>
   <v>       0.00064069      -0.00266288       0.00380380 </v>
   <v>       0.00101042       0.00172054       0.00209329 </v>
   <v>      -0.00000000       0.00113977       0.00208430 </v>
   <v>      -0.00199524       0.00001478       0.00209329 </v>
   <v>       0.00198578       0.00188629       0.00380380 </v>
   <v>       0.00000000      -0.00352321      -0.00148072 </v>
   <v>      -0.00198578       0.00188629       0.00380380 </v>
   <v>       0.00199524       0.00001478       0.00209329 </v>
   <v>      -0.00098707      -0.00056988       0.00208430 </v>
   <v>       0.00098482      -0.00173531       0.00209329 </v>
   <v>      -0.00262647       0.00077659       0.00380380 </v>
   <v>       0.00305119       0.00176161      -0.00148072 </v>
   <v>      -0.00064069      -0.00266288       0.00380380 </v>
   <v>      -0.00101042       0.00172054       0.00209329 </v>
   <v>      -0.00158301       0.00091395      -0.00006188 </v>
   <v>      -0.00158314       0.00091402      -0.00303825 </v>
   <v>       0.00463266      -0.00267467       0.00461648 </v>
   <v>       0.00236832      -0.00136735       0.00075556 </v>
   <v>       0.00295886      -0.00170830      -0.00437014 </v>
   <v>       0.00000000      -0.00182790      -0.00006188 </v>
   <v>       0.00000000      -0.00182805      -0.00303825 </v>
   <v>      -0.00000000       0.00534934       0.00461648 </v>
   <v>      -0.00000000       0.00273469       0.00075556 </v>
   <v>      -0.00000000       0.00341660      -0.00437014 </v>
   <v>       0.00158301       0.00091395      -0.00006188 </v>
   <v>      -0.00463266      -0.00267467       0.00461648 </v>
   <v>      -0.00236832      -0.00136735       0.00075556 </v>
   <v>      -0.00295886      -0.00170830      -0.00437014 </v>
   <v>       0.00279009      -0.00161086      -0.00384091 </v>
   <v>      -0.00460329       0.00265771      -0.00307461 </v>
   <v>      -0.00000000       0.00322171      -0.00384091 </v>
   <v>       0.00000000      -0.00531543      -0.00307461 </v>
   <v>      -0.00279009      -0.00161086      -0.00384091 </v>
  </varray>
  <varray name="stress" >
   <v>      -0.01750694       0.00000000       0.00000000 </v>
   <v>       0.00000000      -0.01750694       0.00000000 </v>
   <v>       0.00000000       0.00000000      -0.14063221 </v>
  </varray>
  <energy>
   <i name="e_fr_energy">   -774.00715646 </i>
   <i name="e_wo_entrp">   -774.00715646 </i>
   <i name="e_0_energy">     -0.00000000 </i>
  </energy>
  <time name="totalsc"> 3722.54 3771.30</time>
  <eigenvalues>
   <array>
    <dimension dim="1">band</dimension>
    <dimension dim="2">kpoint</dimension>
    <dimension dim="3">spin</dimension>
    <field>eigene</field>
    <field>occ</field>
    <set>
     <set comment="spin 1">
      <set comment="kpoint 1">
       <r>  -25.1624    1.0000 </r>
       <r>  -25.1060    1.0000 </r>
       <r>  -22.2445    1.0000 </r>
       <r>  -22.2442    1.0000 </r>
       <r>  -22.1882    1.0000 </r>
       <r>  -22.1879    1.0000 </r>
       <r>  -21.5296    1.0000 </r>
       <r>  -21.4976    1.0000 </r>
       <r>  -21.4974    1.0000 </r>
       <r>  -21.2048    1.0000 </r>
       <r>  -21.1385    1.0000 </r>
       <r>  -21.1382    1.0000 </r>
       <r>  -20.8061    1.0000 </r>
       <r>  -20.7666    1.0000 </r>
       <r>  -20.7664    1.0000 </r>
       <r>  -19.5123    1.0000 </r>
       <r>  -19.5120    1.0000 </r>
       <r>  -19.4597    1.0000 </r>
       <r>  -18.8589    1.0000 </r>
       <r>  -18.8585    1.0000 </r>
       <r>  -18.7647    1.0000 </r>
       <r>  -18.6870    1.0000 </r>
       <r>  -18.6869    1.0000 </r>
       <r>  -18.5301    1.0000 </r>
       <r>  -18.2805    1.0000 </r>
       <r>  -18.2798    1.0000 </r>
       <r>  -18.2783    1.0000 </r>
       <r>  -18.2211    1.0000 </r>
       <r>  -18.2096    1.0000 </r>
       <r>  -18.2095    1.0000 </r>
       <r>  -17.8664    1.0000 </r>
       <r>  -17.8661    1.0000 </r>
       <r>  -17.5646    1.0000 </r>
       <r>  -16.7917    1.0000 </r>
       <r>  -16.7913    1.0000 </r>
       <r>  -16.6364    1.0000 </r>
       <r>  -16.5940    1.0000 </r>
       <r>  -16.5937    1.0000 </r>
       <r>  -16.0584    1.0000 </r>
       <r>  -16.0580    1.0000 </r>
       <r>  -15.6935    1.0000 </r>
       <r>  -14.9920    1.0000 </r>
       <r>  -14.9335    1.0000 </r>
       <r>  -14.9089    1.0000 </r>
       <r>  -14.9088    1.0000 </r>
       <r>  -14.7653    1.0000 </r>
       <r>  -14.6604    1.0000 </r>
       <r>  -14.6601    1.0000 </r>
       <r>  -14.5283    1.0000 </r>
       <r>  -14.5283    1.0000 </r>
       <r>  -14.4279    1.0000 </r>
       <r>  -14.3045    1.0000 </r>
       <r>  -14.3043    1.0000 </r>
       <r>  -13.9379    1.0000 </r>
       <r>  -13.9374    1.0000 </r>
       <r>  -13.6648    1.0000 </r>
       <r>  -13.5485    1.0000 </r>
       <r>  -13.5483    1.0000 </r>
       <r>  -13.0931    1.0000 </r>
       <r>  -13.0623    1.0000 </r>
       <r>  -13.0305    1.0000 </r>
       <r>  -12.9916    1.0000 </r>
       <r>  -12.5192    1.0000 </r>
       <r>  -12.5188    1.0000 </r>
       <r>  -12.2407    1.0000 </r>
       <r>  -12.2040    1.0000 </r>
       <r>  -12.2037    1.0000 </r>
       <r>  -11.4449    1.0000 </r>
       <r>  -11.3969    1.0000 </r>
       <r>  -11.3967    1.0000 </r>
       <r>  -11.3485    1.0000 </r>
       <r>  -11.3399    1.0000 </r>
       <r>  -11.3398    1.0000 </r>
       <r>  -11.0686    1.0000 </r>
       <r>  -11.0685    1.0000 </r>
       <r>  -11.0264    1.0000 </r>
       <r>  -10.9706    1.0000 </r>
       <r>  -10.8099    1.0000 </r>
       <r>  -10.8096    1.0000 </r>
       <r>  -10.7313    1.0000 </r>
       <r>  -10.7312    1.0000 </r>
       <r>  -10.6974    1.0000 </r>
       <r>  -10.6276    1.0000 </r>
       <r>  -10.5856    1.0000 </r>
       <r>  -10.5221    1.0000 </r>
       <r>  -10.4441    1.0000 </r>
       <r>  -10.4437    1.0000 </r>
       <r>  -10.3451    1.0000 </r>
       <r>  -10.3450    1.0000 </r>
       <r>  -10.2063    1.0000 </r>
       <r>  -10.0005    1.0000 </r>
       <r>   -9.9996    1.0000 </r>
       <r>   -9.9527    1.0000 </r>
       <r>   -9.9298    1.0000 </r>
       <r>   -9.9296    1.0000 </r>
       <r>   -9.8652    1.0000 </r>
       <r>   -9.8649    1.0000 </r>
       <r>   -9.8628    1.0000 </r>
       <r>   -9.8097    1.0000 </r>
       <r>   -9.7816    1.0000 </r>
       <r>   -9.7193    1.0000 </r>
       <r>   -9.7192    1.0000 </r>
       <r>   -9.6302    1.0000 </r>
       <r>   -9.6300    1.0000 </r>
       <r>   -9.5603    1.0000 </r>
       <r>   -9.3061    1.0000 </r>
       <r>   -9.3057    1.0000 </r>
       <r>   -9.2033    1.0000 </r>
       <r>   -9.2029    1.0000 </r>
       <r>   -9.1114    1.0000 </r>
       <r>   -9.1111    1.0000 </r>
       <r>   -9.0504    1.0000 </r>
       <r>   -8.8210    1.0000 </r>
       <r>   -8.8206    1.0000 </r>
       <r>   -8.7772    1.0000 </r>
       <r>   -8.6037    1.0000 </r>
       <r>   -8.5044    1.0000 </r>
       <r>   -8.4763    1.0000 </r>
       <r>   -8.4762    1.0000 </r>
       <r>   -8.4423    1.0000 </r>
       <r>   -8.4244    1.0000 </r>
       <r>   -8.3624    1.0000 </r>
       <r>   -8.2106    1.0000 </r>
       <r>   -8.2101    1.0000 </r>
       <r>   -8.1962    1.0000 </r>
       <r>   -8.1960    1.0000 </r>
       <r>   -8.0639    1.0000 </r>
       <r>   -8.0634    1.0000 </r>
       <r>   -7.9479    1.0000 </r>
       <r>   -7.9392    1.0000 </r>
       <r>   -7.8996    1.0000 </r>
       <r>   -7.8995    1.0000 </r>
       <r>   -7.8266    1.0000 </r>
       <r>   -7.8265    1.0000 </r>
       <r>   -7.8015    1.0000 </r>
       <r>   -7.6884    1.0000 </r>
       <r>   -7.6883    1.0000 </r>
       <r>   -7.6261    1.0000 </r>
       <r>   -7.5584    1.0000 </r>
       <r>   -7.5581    1.0000 </r>
       <r>   -6.2219    1.0000 </r>
       <r>   -6.2209    1.0000 </r>
       <r>   -6.2025    1.0000 </r>
       <r>   -6.1785    1.0000 </r>
       <r>   -6.1784    1.0000 </r>
       <r>   -6.1616    1.0000 </r>
       <r>   -6.0070    1.0000 </r>
       <r>   -5.9562    1.0000 </r>
       <r>   -5.9562    1.0000 </r>
       <r>   -5.9427    1.0000 </r>
       <r>   -5.9352    1.0000 </r>
       <r>   -5.8810    1.0000 </r>
       <r>   -5.8807    1.0000 </r>
       <r>   -5.8228    1.0000 </r>
       <r>   -5.8227    1.0000 </r>
       <r>   -5.7903    1.0000 </r>
       <r>   -5.7901    1.0000 </r>
       <r>   -5.7252    1.0000 </r>
       <r>   -5.7097    1.0000 </r>
       <r>   -5.7092    1.0000 </r>
       <r>   -5.6315    1.0000 </r>
       <r>   -5.6311    1.0000 </r>
       <r>   -2.5440    0.0000 </r>
       <r>   -2.5436    0.0000 </r>
       <r>   -2.4729    0.0000 </r>
       <r>   -2.4728    0.0000 </r>
       <r>   -1.3997    0.0000 </r>
       <r>   -1.3043    0.0000 </r>
       <r>   -1.2923    0.0000 </r>
       <r>   -1.2866    0.0000 </r>
       <r>   -1.2863    0.0000 </r>
       <r>   -1.0626    0.0000 </r>
       <r>   -1.0623    0.0000 </r>
       <r>   -1.0591    0.0000 </r>
       <r>   -0.9410    0.0000 </r>
       <r>   -0.9407    0.0000 </r>
       <r>   -0.9333    0.0000 </r>
       <r>   -0.6245    0.0000 </r>
       <r>   -0.6244    0.0000 </r>
       <r>   -0.6097    0.0000 </r>
       <r>   -0.3372    0.0000 </r>
       <r>   -0.1848    0.0000 </r>
       <r>   -0.1844    0.0000 </r>
       <r>   -0.1385    0.0000 </r>
       <r>   -0.0600    0.0000 </r>
       <r>   -0.0594    0.0000 </r>
       <r>    0.0336    0.0000 </r>
       <r>    0.0337    0.0000 </r>
       <r>    0.0623    0.0000 </r>
       <r>    0.0627    0.0000 </r>
       <r>    0.1578    0.0000 </r>
       <r>    0.3040    0.0000 </r>
       <r>    0.3043    0.0000 </r>
       <r>    0.3409    0.0000 </r>
       <r>    0.3461    0.0000 </r>
       <r>    0.3464    0.0000 </r>
       <r>    0.3523    0.0000 </r>
       <r>    0.4294    0.0000 </r>
       <r>    0.4375    0.0000 </r>
       <r>    0.4376    0.0000 </r>
       <r>    0.4843    0.0000 </r>
       <r>    0.4965    0.0000 </r>
       <r>    0.5595    0.0000 </r>
       <r>    0.5598    0.0000 </r>
       <r>    0.5771    0.0000 </r>
       <r>    0.6997    0.0000 </r>
       <r>    0.7004    0.0000 </r>
       <r>    0.7249    0.0000 </r>
       <r>    0.7262    0.0000 </r>
       <r>    0.7569    0.0000 </r>
       <r>    0.8239    0.0000 </r>
       <r>    0.8436    0.0000 </r>
       <r>    0.8448    0.0000 </r>
       <r>    0.8553    0.0000 </r>
       <r>    0.8633    0.0000 </r>
       <r>    0.8913    0.0000 </r>
       <r>    0.9351    0.0000 </r>
       <r>    0.9353    0.0000 </r>
       <r>    0.9743    0.0000 </r>
       <r>    0.9762    0.0000 </r>
       <r>    1.0477    0.0000 </r>
       <r>    1.0483    0.0000 </r>
       <r>    1.0521    0.0000 </r>
       <r>    1.0628    0.0000 </r>
      </set>
      <set comment="kpoint 2">
       <r>  -25.1624    1.0000 </r>
       <r>  -25.1060    1.0000 </r>
       <r>  -22.2445    1.0000 </r>
       <r>  -22.2442    1.0000 </r>
       <r>  -22.1882    1.0000 </r>
       <r>  -22.1879    1.0000 </r>
       <r>  -21.5295    1.0000 </r>
       <r>  -21.4976    1.0000 </r>
       <r>  -21.4974    1.0000 </r>
       <r>  -21.2047    1.0000 </r>
       <r>  -21.1386    1.0000 </r>
       <r>  -21.1382    1.0000 </r>
       <r>  -20.8060    1.0000 </r>
       <r>  -20.7666    1.0000 </r>
       <r>  -20.7664    1.0000 </r>
       <r>  -19.5123    1.0000 </r>
       <r>  -19.5120    1.0000 </r>
       <r>  -19.4598    1.0000 </r>
       <r>  -18.8588    1.0000 </r>
       <r>  -18.8584    1.0000 </r>
       <r>  -18.7648    1.0000 </r>
       <r>  -18.6870    1.0000 </r>
       <r>  -18.6868    1.0000 </r>
       <r>  -18.5305    1.0000 </r>
       <r>  -18.2805    1.0000 </r>
       <r>  -18.2798    1.0000 </r>
       <r>  -18.2783    1.0000 </r>
       <r>  -18.2211    1.0000 </r>
       <r>  -18.2096    1.0000 </r>
       <r>  -18.2095    1.0000 </r>
       <r>  -17.8662    1.0000 </r>
       <r>  -17.8658    1.0000 </r>
       <r>  -17.5651    1.0000 </r>
       <r>  -16.7916    1.0000 </r>
       <r>  -16.7912    1.0000 </r>
       <r>  -16.6365    1.0000 </r>
       <r>  -16.5938    1.0000 </r>
       <r>  -16.5933    1.0000 </r>
       <r>  -16.0600    1.0000 </r>
       <r>  -16.0581    1.0000 </r>
       <r>  -15.6916    1.0000 </r>
       <r>  -14.9920    1.0000 </r>
       <r>  -14.9335    1.0000 </r>
       <r>  -14.9116    1.0000 </r>
       <r>  -14.9089    1.0000 </r>
       <r>  -14.7637    1.0000 </r>
       <r>  -14.6604    1.0000 </r>
       <r>  -14.6600    1.0000 </r>
       <r>  -14.5283    1.0000 </r>
       <r>  -14.5280    1.0000 </r>
       <r>  -14.4279    1.0000 </r>
       <r>  -14.3044    1.0000 </r>
       <r>  -14.3041    1.0000 </r>
       <r>  -13.9385    1.0000 </r>
       <r>  -13.9375    1.0000 </r>
       <r>  -13.6645    1.0000 </r>
       <r>  -13.5485    1.0000 </r>
       <r>  -13.5483    1.0000 </r>
       <r>  -13.0931    1.0000 </r>
       <r>  -13.0623    1.0000 </r>
       <r>  -13.0305    1.0000 </r>
       <r>  -12.9916    1.0000 </r>
       <r>  -12.5191    1.0000 </r>
       <r>  -12.5188    1.0000 </r>
       <r>  -12.2458    1.0000 </r>
       <r>  -12.2038    1.0000 </r>
       <r>  -12.1985    1.0000 </r>
       <r>  -11.4514    1.0000 </r>
       <r>  -11.3968    1.0000 </r>
       <r>  -11.3911    1.0000 </r>
       <r>  -11.3485    1.0000 </r>
       <r>  -11.3398    1.0000 </r>
       <r>  -11.3395    1.0000 </r>
       <r>  -11.0686    1.0000 </r>
       <r>  -11.0684    1.0000 </r>
       <r>  -11.0264    1.0000 </r>
       <r>  -10.9706    1.0000 </r>
       <r>  -10.8100    1.0000 </r>
       <r>  -10.8097    1.0000 </r>
       <r>  -10.7314    1.0000 </r>
       <r>  -10.7312    1.0000 </r>
       <r>  -10.6972    1.0000 </r>
       <r>  -10.6275    1.0000 </r>
       <r>  -10.5856    1.0000 </r>
       <r>  -10.5223    1.0000 </r>
       <r>  -10.4440    1.0000 </r>
       <r>  -10.4436    1.0000 </r>
       <r>  -10.3451    1.0000 </r>
       <r>  -10.3450    1.0000 </r>
       <r>  -10.2060    1.0000 </r>
       <r>  -10.0005    1.0000 </r>
       <r>   -9.9996    1.0000 </r>
       <r>   -9.9527    1.0000 </r>
       <r>   -9.9299    1.0000 </r>
       <r>   -9.9296    1.0000 </r>
       <r>   -9.8656    1.0000 </r>
       <r>   -9.8652    1.0000 </r>
       <r>   -9.8622    1.0000 </r>
       <r>   -9.8097    1.0000 </r>
       <r>   -9.7836    1.0000 </r>
       <r>   -9.7193    1.0000 </r>
       <r>   -9.7178    1.0000 </r>
       <r>   -9.6303    1.0000 </r>
       <r>   -9.6301    1.0000 </r>
       <r>   -9.5590    1.0000 </r>
       <r>   -9.3061    1.0000 </r>
       <r>   -9.3056    1.0000 </r>
       <r>   -9.2035    1.0000 </r>
       <r>   -9.2029    1.0000 </r>
       <r>   -9.1118    1.0000 </r>
       <r>   -9.1112    1.0000 </r>
       <r>   -9.0500    1.0000 </r>
       <r>   -8.8216    1.0000 </r>
       <r>   -8.8207    1.0000 </r>
       <r>   -8.7771    1.0000 </r>
       <r>   -8.6039    1.0000 </r>
       <r>   -8.5036    1.0000 </r>
       <r>   -8.4762    1.0000 </r>
       <r>   -8.4762    1.0000 </r>
       <r>   -8.4424    1.0000 </r>
       <r>   -8.4244    1.0000 </r>
       <r>   -8.3624    1.0000 </r>
       <r>   -8.2109    1.0000 </r>
       <r>   -8.2102    1.0000 </r>
       <r>   -8.1961    1.0000 </r>
       <r>   -8.1958    1.0000 </r>
       <r>   -8.0638    1.0000 </r>
       <r>   -8.0633    1.0000 </r>
       <r>   -7.9482    1.0000 </r>
       <r>   -7.9399    1.0000 </r>
       <r>   -7.8995    1.0000 </r>
       <r>   -7.8992    1.0000 </r>
       <r>   -7.8265    1.0000 </r>
       <r>   -7.8260    1.0000 </r>
       <r>   -7.8016    1.0000 </r>
       <r>   -7.6885    1.0000 </r>
       <r>   -7.6883    1.0000 </r>
       <r>   -7.6260    1.0000 </r>
       <r>   -7.5585    1.0000 </r>
       <r>   -7.5581    1.0000 </r>
       <r>   -6.2219    1.0000 </r>
       <r>   -6.2209    1.0000 </r>
       <r>   -6.2025    1.0000 </r>
       <r>   -6.1785    1.0000 </r>
       <r>   -6.1784    1.0000 </r>
       <r>   -6.1616    1.0000 </r>
       <r>   -6.0070    1.0000 </r>
       <r>   -5.9562    1.0000 </r>
       <r>   -5.9562    1.0000 </r>
       <r>   -5.9427    1.0000 </r>
       <r>   -5.9352    1.0000 </r>
       <r>   -5.8810    1.0000 </r>
       <r>   -5.8807    1.0000 </r>
       <r>   -5.8228    1.0000 </r>
       <r>   -5.8227    1.0000 </r>
       <r>   -5.7903    1.0000 </r>
       <r>   -5.7901    1.0000 </r>
       <r>   -5.7256    1.0000 </r>
       <r>   -5.7094    1.0000 </r>
       <r>   -5.7089    1.0000 </r>
       <r>   -5.6315    1.0000 </r>
       <r>   -5.6311    1.0000 </r>
       <r>   -2.5440    0.0000 </r>
       <r>   -2.5436    0.0000 </r>
       <r>   -2.4729    0.0000 </r>
       <r>   -2.4728    0.0000 </r>
       <r>   -1.3997    0.0000 </r>
       <r>   -1.3044    0.0000 </r>
       <r>   -1.2923    0.0000 </r>
       <r>   -1.2866    0.0000 </r>
       <r>   -1.2863    0.0000 </r>
       <r>   -1.0626    0.0000 </r>
       <r>   -1.0622    0.0000 </r>
       <r>   -1.0591    0.0000 </r>
       <r>   -0.9410    0.0000 </r>
       <r>   -0.9407    0.0000 </r>
       <r>   -0.9333    0.0000 </r>
       <r>   -0.6245    0.0000 </r>
       <r>   -0.6244    0.0000 </r>
       <r>   -0.6097    0.0000 </r>
       <r>   -0.3371    0.0000 </r>
       <r>   -0.1857    0.0000 </r>
       <r>   -0.1845    0.0000 </r>
       <r>   -0.1375    0.0000 </r>
       <r>   -0.0599    0.0000 </r>
       <r>   -0.0594    0.0000 </r>
       <r>    0.0336    0.0000 </r>
       <r>    0.0337    0.0000 </r>
       <r>    0.0625    0.0000 </r>
       <r>    0.0628    0.0000 </r>
       <r>    0.1580    0.0000 </r>
       <r>    0.3035    0.0000 </r>
       <r>    0.3039    0.0000 </r>
       <r>    0.3402    0.0000 </r>
       <r>    0.3450    0.0000 </r>
       <r>    0.3457    0.0000 </r>
       <r>    0.3520    0.0000 </r>
       <r>    0.4303    0.0000 </r>
       <r>    0.4383    0.0000 </r>
       <r>    0.4386    0.0000 </r>
       <r>    0.4849    0.0000 </r>
       <r>    0.4972    0.0000 </r>
       <r>    0.5563    0.0000 </r>
       <r>    0.5599    0.0000 </r>
       <r>    0.5808    0.0000 </r>
       <r>    0.6996    0.0000 </r>
       <r>    0.7002    0.0000 </r>
       <r>    0.7245    0.0000 </r>
       <r>    0.7257    0.0000 </r>
       <r>    0.7576    0.0000 </r>
       <r>    0.8207    0.0000 </r>
       <r>    0.8440    0.0000 </r>
       <r>    0.8476    0.0000 </r>
       <r>    0.8548    0.0000 </r>
       <r>    0.8635    0.0000 </r>
       <r>    0.8914    0.0000 </r>
       <r>    0.9344    0.0000 </r>
       <r>    0.9360    0.0000 </r>
       <r>    0.9745    0.0000 </r>
       <r>    0.9762    0.0000 </r>
       <r>    1.0424    0.0000 </r>
       <r>    1.0461    0.0000 </r>
       <r>    1.0470    0.0000 </r>
       <r>    1.0635    0.0000 </r>
      </set>
      <set comment="kpoint 3">
       <r>  -25.1624    1.0000 </r>
       <r>  -25.1060    1.0000 </r>
       <r>  -22.2445    1.0000 </r>
       <r>  -22.2442    1.0000 </r>
       <r>  -22.1882    1.0000 </r>
       <r>  -22.1879    1.0000 </r>
       <r>  -21.5294    1.0000 </r>
       <r>  -21.4978    1.0000 </r>
       <r>  -21.4974    1.0000 </r>
       <r>  -21.2044    1.0000 </r>
       <r>  -21.1389    1.0000 </r>
       <r>  -21.1382    1.0000 </r>
       <r>  -20.8058    1.0000 </r>
       <r>  -20.7668    1.0000 </r>
       <r>  -20.7664    1.0000 </r>
       <r>  -19.5122    1.0000 </r>
       <r>  -19.5119    1.0000 </r>
       <r>  -19.4600    1.0000 </r>
       <r>  -18.8586    1.0000 </r>
[...]
       <r>   -21.6656     0.0000    12.0000 </r>
       <r>   -21.5694     0.0000    12.0000 </r>
       <r>   -21.4733    62.3871    17.9993 </r>
       <r>   -21.3771     0.0000    18.0000 </r>
       <r>   -21.2810     0.0000    18.0000 </r>
       <r>   -21.1848    12.3924    19.1917 </r>
       <r>   -21.0886    41.5664    24.0000 </r>
       <r>   -20.9925     0.0000    24.0000 </r>
       <r>   -20.8963     0.0000    24.0000 </r>
       <r>   -20.8002     6.7178    24.6460 </r>
       <r>   -20.7040    40.5266    30.0000 </r>
       <r>   -20.6078     0.0000    30.0000 </r>
       <r>   -20.5117     0.0000    30.0000 </r>
       <r>   -20.4155     0.0000    30.0000 </r>
       <r>   -20.3193     0.0000    30.0000 </r>
       <r>   -20.2232     0.0000    30.0000 </r>
       <r>   -20.1270     0.0000    30.0000 </r>
       <r>   -20.0309     0.0000    30.0000 </r>
       <r>   -19.9347     0.0000    30.0000 </r>
       <r>   -19.8385     0.0000    30.0000 </r>
       <r>   -19.7424     0.0000    30.0000 </r>
       <r>   -19.6462     0.0000    30.0000 </r>
       <r>   -19.5501     0.0000    30.0000 </r>
       <r>   -19.4539    61.4952    35.9135 </r>
       <r>   -19.3577     0.0000    36.0000 </r>
       <r>   -19.2616     0.0000    36.0000 </r>
       <r>   -19.1654     0.0000    36.0000 </r>
       <r>   -19.0692     0.0000    36.0000 </r>
       <r>   -18.9731     0.0000    36.0000 </r>
       <r>   -18.8769     0.1122    36.0108 </r>
       <r>   -18.7808    42.2020    40.0690 </r>
       <r>   -18.6846    16.5972    43.5960 </r>
       <r>   -18.5884    19.7943    46.8719 </r>
       <r>   -18.4923     8.3151    48.0000 </r>
       <r>   -18.3961     0.0000    48.0000 </r>
       <r>   -18.2999     0.0996    48.0096 </r>
       <r>   -18.2038   114.6026    59.0300 </r>
       <r>   -18.1076     0.0000    60.0000 </r>
       <r>   -18.0115     0.0000    60.0000 </r>
       <r>   -17.9153     0.0000    60.0000 </r>
       <r>   -17.8191    28.2869    62.7201 </r>
       <r>   -17.7230    11.8775    64.0089 </r>
       <r>   -17.6268    10.8435    65.2431 </r>
       <r>   -17.5307     6.5852    66.0000 </r>
       <r>   -17.4345     0.0000    66.0000 </r>
       <r>   -17.3383     0.0000    66.0000 </r>
       <r>   -17.2422     0.0000    66.0000 </r>
       <r>   -17.1460     0.0000    66.0000 </r>
       <r>   -17.0498     0.0000    66.0000 </r>
       <r>   -16.9537     0.0000    66.0000 </r>
       <r>   -16.8575     0.0000    66.0000 </r>
       <r>   -16.7614    36.1801    69.4791 </r>
       <r>   -16.6652     0.0982    70.0094 </r>
       <r>   -16.5690    46.0922    74.4418 </r>
       <r>   -16.4729     6.1029    75.1537 </r>
       <r>   -16.3767     5.1956    76.0000 </r>
       <r>   -16.2805     9.6276    76.9258 </r>
       <r>   -16.1844     3.0506    77.3267 </r>
       <r>   -16.0882     3.4530    77.6989 </r>
       <r>   -15.9921    22.8771    80.0000 </r>
       <r>   -15.8959     0.0000    80.0000 </r>
       <r>   -15.7997     0.0000    80.0000 </r>
       <r>   -15.7036     0.0860    80.0083 </r>
       <r>   -15.6074     3.8162    80.5006 </r>
       <r>   -15.5113     2.3722    80.7948 </r>
       <r>   -15.4151     4.2283    81.2733 </r>
       <r>   -15.3189     5.3819    81.9846 </r>
       <r>   -15.2228     5.6186    82.5404 </r>
       <r>   -15.1266     4.7229    83.1549 </r>
       <r>   -15.0304     2.4685    83.4374 </r>
       <r>   -14.9343    33.0948    86.6825 </r>
       <r>   -14.8381    22.1792    90.0000 </r>
       <r>   -14.7420     3.1943    90.3072 </r>
       <r>   -14.6458    47.8625    95.0362 </r>
       <r>   -14.5496     0.0503    96.0048 </r>
       <r>   -14.4535    41.5325    99.9987 </r>
       <r>   -14.3573    20.7827   102.0000 </r>
       <r>   -14.2612    27.9377   104.6865 </r>
       <r>   -14.1650    11.3661   105.8931 </r>
       <r>   -14.0688     8.4581   106.8133 </r>
       <r>   -13.9727     4.9558   107.5100 </r>
       <r>   -13.8765    24.6086   110.0000 </r>
       <r>   -13.7803     0.0000   110.0000 </r>
       <r>   -13.6842     0.0057   110.0005 </r>
       <r>   -13.5880    20.8211   112.0027 </r>
       <r>   -13.4919    41.5659   116.0000 </r>
       <r>   -13.3957     0.0000   116.0000 </r>
       <r>   -13.2995     0.0000   116.0000 </r>
       <r>   -13.2034     0.0000   116.0000 </r>
       <r>   -13.1072     0.4779   116.0460 </r>
       <r>   -13.0110    41.6471   122.0049 </r>
       <r>   -12.9149    20.6871   124.0000 </r>
       <r>   -12.8187     0.0000   124.0000 </r>
       <r>   -12.7226     0.0000   124.0000 </r>
       <r>   -12.6264     0.0000   124.0000 </r>
       <r>   -12.5302     1.3633   124.1311 </r>
       <r>   -12.4341    15.9345   128.0000 </r>
       <r>   -12.3379    14.5092   129.3952 </r>
       <r>   -12.2418     4.6292   129.9452 </r>
       <r>   -12.1456    24.1889   132.3261 </r>
       <r>   -12.0494     3.2299   132.6775 </r>
       <r>   -11.9533     3.5303   133.0729 </r>
       <r>   -11.8571     6.5838   134.0000 </r>
       <r>   -11.7609     5.4077   134.5200 </r>
       <r>   -11.6648     4.8718   135.2029 </r>
       <r>   -11.5686     2.4812   135.5053 </r>
       <r>   -11.4725     2.6107   135.8177 </r>
       <r>   -11.3763    23.9557   138.1705 </r>
       <r>   -11.2801    64.9987   144.5173 </r>
       <r>   -11.1840     8.2978   145.3980 </r>
       <r>   -11.0878     7.4151   146.5142 </r>
       <r>   -10.9916    47.8255   152.0030 </r>
       <r>   -10.8955    20.7670   154.0000 </r>
       <r>   -10.7993    41.1648   157.9585 </r>
       <r>   -10.7032    42.1014   162.0485 </r>
       <r>   -10.6070    32.4658   165.6897 </r>
       <r>   -10.5108    28.5983   169.9861 </r>
       <r>   -10.4147    33.5852   173.2296 </r>
       <r>   -10.3185    41.5936   177.9997 </r>
       <r>   -10.2224     0.0247   178.0024 </r>
       <r>   -10.1262    15.0427   179.5148 </r>
       <r>   -10.0300    12.8551   181.0033 </r>
       <r>    -9.9339    78.0338   188.6710 </r>
       <r>    -9.8377    64.6018   196.2133 </r>
       <r>    -9.7415    25.4818   200.0184 </r>
       <r>    -9.6454    38.1590   204.3087 </r>
       <r>    -9.5492     2.1208   208.2039 </r>
       <r>    -9.4531     3.8298   208.7017 </r>
       <r>    -9.3569     7.3777   209.4763 </r>
       <r>    -9.2607    48.7590   214.3558 </r>
       <r>    -9.1646    43.5401   219.2206 </r>
       <r>    -9.0684    27.3914   222.0009 </r>
       <r>    -8.9722    20.7265   223.9940 </r>
       <r>    -8.8761    13.4674   225.2951 </r>
       <r>    -8.7799    28.1593   228.1414 </r>
       <r>    -8.6838    12.8150   230.0000 </r>
       <r>    -8.5876    20.7716   231.9974 </r>
       <r>    -8.4914     3.5035   232.3369 </r>
       <r>    -8.3953    74.8618   240.9375 </r>
       <r>    -8.2991    38.4005   244.7265 </r>
       <r>    -8.2030    34.1533   248.2846 </r>
       <r>    -8.1068    16.1036   251.9157 </r>
       <r>    -8.0106    53.6443   257.1585 </r>
       <r>    -7.9145    24.9359   260.1342 </r>
       <r>    -7.8183    45.2768   266.4884 </r>
       <r>    -7.7221    21.6634   270.3853 </r>
       <r>    -7.6260    31.7124   274.2170 </r>
       <r>    -7.5298    54.0665   279.9999 </r>
       <r>    -7.4337     0.0000   280.0000 </r>
       <r>    -7.3375     0.0000   280.0000 </r>
       <r>    -7.2413     0.0000   280.0000 </r>
       <r>    -7.1452     0.0000   280.0000 </r>
       <r>    -7.0490     0.0000   280.0000 </r>
       <r>    -6.9529     0.0000   280.0000 </r>
       <r>    -6.8567     0.0000   280.0000 </r>
       <r>    -6.7605     0.0000   280.0000 </r>
       <r>    -6.6644     0.0000   280.0000 </r>
       <r>    -6.5682     0.0000   280.0000 </r>
       <r>    -6.4720     0.0000   280.0000 </r>
       <r>    -6.3759     0.0000   280.0000 </r>
       <r>    -6.2797     0.0000   280.0000 </r>
       <r>    -6.1836    72.0085   286.9245 </r>
       <r>    -6.0874    20.7744   292.0000 </r>
       <r>    -5.9912    20.1446   293.9371 </r>
       <r>    -5.8951    84.0163   302.0792 </r>
       <r>    -5.7989    60.0192   310.3442 </r>
       <r>    -5.7027    40.9674   317.9395 </r>
       <r>    -5.6066    54.7504   323.9994 </r>
       <r>    -5.5104     0.0000   324.0000 </r>
       <r>    -5.4143     0.0000   324.0000 </r>
       <r>    -5.3181     0.0000   324.0000 </r>
       <r>    -5.2219     0.0000   324.0000 </r>
       <r>    -5.1258     0.0000   324.0000 </r>
       <r>    -5.0296     0.0000   324.0000 </r>
       <r>    -4.9335     0.0000   324.0000 </r>
       <r>    -4.8373     0.0000   324.0000 </r>
       <r>    -4.7411     0.0000   324.0000 </r>
       <r>    -4.6450     0.0000   324.0000 </r>
       <r>    -4.5488     0.0000   324.0000 </r>
       <r>    -4.4526     0.0000   324.0000 </r>
       <r>    -4.3565     0.0000   324.0000 </r>
       <r>    -4.2603     0.0000   324.0000 </r>
       <r>    -4.1642     0.0000   324.0000 </r>
       <r>    -4.0680     0.0000   324.0000 </r>
       <r>    -3.9718     0.0000   324.0000 </r>
       <r>    -3.8757     0.0000   324.0000 </r>
       <r>    -3.7795     0.0000   324.0000 </r>
       <r>    -3.6833     0.0000   324.0000 </r>
       <r>    -3.5872     0.0000   324.0000 </r>
       <r>    -3.4910     0.0000   324.0000 </r>
       <r>    -3.3949     0.0000   324.0000 </r>
       <r>    -3.2987     0.0000   324.0000 </r>
       <r>    -3.2025     0.0000   324.0000 </r>
       <r>    -3.1064     0.0000   324.0000 </r>
       <r>    -3.0102     0.0000   324.0000 </r>
       <r>    -2.9141     0.0000   324.0000 </r>
       <r>    -2.8179     0.0000   324.0000 </r>
       <r>    -2.7217     0.0000   324.0000 </r>
       <r>    -2.6256     0.0000   324.0000 </r>
       <r>    -2.5294    40.4185   327.8867 </r>
       <r>    -2.4332    41.5965   332.0000 </r>
       <r>    -2.3371     0.0000   332.0000 </r>
       <r>    -2.2409     0.0000   332.0000 </r>
       <r>    -2.1448     0.0000   332.0000 </r>
       <r>    -2.0486     0.0000   332.0000 </r>
       <r>    -1.9524     0.0000   332.0000 </r>
       <r>    -1.8563     0.0000   332.0000 </r>
       <r>    -1.7601     0.0000   332.0000 </r>
       <r>    -1.6639     0.0000   332.0000 </r>
       <r>    -1.5678     0.0000   332.0000 </r>
       <r>    -1.4716     0.0000   332.0000 </r>
       <r>    -1.3755    20.5877   333.9798 </r>
       <r>    -1.2793    77.0467   341.4089 </r>
       <r>    -1.1831     0.0000   342.0000 </r>
       <r>    -1.0870     0.0073   342.0007 </r>
       <r>    -0.9908    62.3875   348.0000 </r>
       <r>    -0.8947    62.3948   354.0000 </r>
       <r>    -0.7985     0.0000   354.0000 </r>
       <r>    -0.7023     0.0000   354.0000 </r>
       <r>    -0.6062    57.9940   359.5768 </r>
       <r>    -0.5100     0.0000   360.0000 </r>
       <r>    -0.4138     0.0000   360.0000 </r>
       <r>    -0.3177    15.3513   361.4762 </r>
       <r>    -0.2215    14.7097   363.4145 </r>
       <r>    -0.1254    27.7329   366.3003 </r>
       <r>    -0.0292    44.8517   370.8800 </r>
       <r>     0.0670    63.6033   377.4838 </r>
       <r>     0.1631    22.1002   380.7258 </r>
       <r>     0.2593    33.0997   385.0838 </r>
       <r>     0.3554    63.0006   392.3265 </r>
       <r>     0.4516    42.0567   396.9116 </r>
       <r>     0.5478    54.2099   402.8134 </r>
       <r>     0.6439    52.6392   408.9642 </r>
       <r>     0.7401    67.4033   416.4835 </r>
       <r>     0.8363    80.0173   425.7975 </r>
       <r>     0.9324    78.5105   435.6191 </r>
       <r>     1.0286    86.8569   445.3210 </r>
       <r>     1.1247    14.5234   448.0000 </r>
       <r>     1.2209     0.0000   448.0000 </r>
       <r>     1.3171     0.0000   448.0000 </r>
       <r>     1.4132     0.0000   448.0000 </r>
       <r>     1.5094     0.0000   448.0000 </r>
       <r>     1.6056     0.0000   448.0000 </r>
       <r>     1.7017     0.0000   448.0000 </r>
       <r>     1.7979     0.0000   448.0000 </r>
       <r>     1.8940     0.0000   448.0000 </r>
       <r>     1.9902     0.0000   448.0000 </r>
       <r>     2.0864     0.0000   448.0000 </r>
       <r>     2.1825     0.0000   448.0000 </r>
       <r>     2.2787     0.0000   448.0000 </r>
       <r>     2.3748     0.0000   448.0000 </r>
      </set>
     </set>
    </array>
   </total>
  </dos>
 </calculation>
 <structure name="finalpos" >
  <crystal>
   <varray name="basis" >
    <v>      29.50184769       0.00000000       0.00000000 </v>
    <v>     -14.75092384      25.54934955       0.00000000 </v>
    <v>       0.00000000       0.00000000      20.00000000 </v>
   </varray>
   <i name="volume">  15075.06038113 </i>
   <varray name="rec_basis" >
    <v>       0.03389618       0.01956997       0.00000000 </v>
    <v>       0.00000000       0.03913994       0.00000000 </v>
    <v>       0.00000000       0.00000000       0.05000000 </v>
   </varray>
  </crystal>
  <varray name="positions" >
   <v>       0.38711355       0.69355677       0.50211010 </v>
   <v>       0.30644323       0.61288645       0.50211010 </v>
   <v>       0.30644323       0.69355677       0.50211010 </v>
   <v>       0.61288383       0.30644192       0.50187312 </v>
   <v>       0.69355808       0.38711617       0.50187312 </v>
   <v>       0.69355808       0.30644192       0.50187312 </v>
   <v>       0.51288520       0.87983761       0.50224256 </v>
   <v>       0.46383032       0.78212442       0.50214730 </v>
   <v>       0.36695240       0.87983761       0.50224256 </v>
   <v>       0.31829410       0.78212442       0.50214730 </v>
   <v>       0.21787558       0.68170590       0.50214730 </v>
   <v>       0.12016239       0.63304760       0.50224256 </v>
   <v>       0.21787558       0.53616968       0.50214730 </v>
   <v>       0.12016239       0.48711480       0.50224256 </v>
   <v>       0.31829410       0.53616968       0.50214730 </v>
   <v>       0.36695240       0.48711480       0.50224256 </v>
   <v>       0.51288520       0.63304760       0.50224256 </v>
   <v>       0.46383032       0.68170590       0.50214730 </v>
   <v>       0.48707056       0.12003044       0.50295551 </v>
   <v>       0.53606275       0.21768252       0.50176197 </v>
   <v>       0.63295988       0.12003044       0.50295551 </v>
   <v>       0.68161977       0.21768252       0.50176197 </v>
   <v>       0.78231748       0.31838023       0.50176197 </v>
   <v>       0.87996956       0.36704012       0.50295551 </v>
   <v>       0.78231748       0.46393725       0.50176197 </v>
   <v>       0.87996956       0.51292944       0.50295551 </v>
   <v>       0.68161977       0.46393725       0.50176197 </v>
   <v>       0.63295988       0.51292944       0.50295551 </v>
   <v>       0.48707056       0.36704012       0.50295551 </v>
   <v>       0.53606275       0.31838023       0.50176197 </v>
   <v>       0.47515297       0.52484703       0.60983031 </v>
   <v>       0.51370525       0.48629475       0.67316064 </v>
   <v>       0.57022562       0.48948321       0.63654897 </v>
   <v>       0.51051679       0.42977438       0.63654897 </v>
   <v>       0.47515297       0.95030594       0.60983031 </v>
   <v>       0.51370525       0.02741050       0.67316064 </v>
   <v>       0.51051679       0.08074240       0.63654897 </v>
   <v>       0.57022562       0.08074240       0.63654897 </v>
   <v>       0.04969406       0.52484703       0.60983031 </v>
   <v>       0.97258950       0.48629475       0.67316064 </v>
   <v>       0.91925760       0.42977438       0.63654897 </v>
   <v>       0.91925760       0.48948321       0.63654897 </v>
   <v>       0.52471491       0.47528509       0.39678874 </v>
   <v>       0.47601138       0.52398862       0.39480581 </v>
   <v>       0.52471491       0.04942983       0.39678874 </v>
   <v>       0.47601138       0.95202276       0.39480581 </v>
   <v>       0.95057017       0.47528509       0.39678874 </v>
   <v>       0.04797724       0.52398862       0.39480581 </v>
   <v>       0.02770374       0.51385187       0.56296339 </v>
   <v>       0.02709700       0.51354850       0.44239870 </v>
   <v>       0.35905329       0.71810657       0.50210636 </v>
   <v>       0.35905329       0.64094671       0.50210636 </v>
   <v>       0.28189343       0.64094671       0.50210636 </v>
   <v>       0.38800656       0.61199344       0.50212517 </v>
   <v>       0.44298435       0.63906789       0.50215992 </v>
   <v>       0.47016671       0.61175611       0.50221176 </v>
   <v>       0.44321032       0.55678968       0.50224161 </v>
   <v>       0.38824389       0.52983329       0.50221176 </v>
   <v>       0.36093211       0.55701565       0.50215992 </v>
   <v>       0.38800656       0.77601311       0.50212517 </v>
   <v>       0.44298435       0.80391646       0.50215992 </v>
   <v>       0.47016671       0.85841060       0.50221176 </v>
   <v>       0.44321032       0.88642065       0.50224161 </v>
   <v>       0.38824389       0.85841060       0.50221176 </v>
   <v>       0.36093211       0.80391646       0.50215992 </v>
   <v>       0.22398689       0.61199344       0.50212517 </v>
   <v>       0.19608354       0.63906789       0.50215992 </v>
   <v>       0.14158940       0.61175611       0.50221176 </v>
   <v>       0.11357935       0.55678968       0.50224161 </v>
   <v>       0.14158940       0.52983329       0.50221176 </v>
   <v>       0.19608354       0.55701565       0.50215992 </v>
   <v>       0.64093453       0.28186906       0.50186484 </v>
   <v>       0.64093453       0.35906547       0.50186484 </v>
   <v>       0.71813094       0.35906547       0.50186484 </v>
   <v>       0.61195592       0.38804408       0.50207341 </v>
   <v>       0.55696558       0.36101722       0.50222575 </v>
   <v>       0.52979548       0.38834865       0.50293438 </v>
   <v>       0.55668123       0.44331877       0.50346703 </v>
   <v>       0.61165135       0.47020452       0.50293438 </v>
   <v>       0.63898278       0.44303442       0.50222575 </v>
   <v>       0.61195592       0.22391184       0.50207341 </v>
   <v>       0.55696558       0.19594836       0.50222575 </v>
   <v>       0.52979548       0.14144683       0.50293438 </v>
   <v>       0.55668123       0.11336246       0.50346703 </v>
   <v>       0.61165135       0.14144683       0.50293438 </v>
   <v>       0.63898278       0.19594836       0.50222575 </v>
   <v>       0.77608816       0.38804408       0.50207341 </v>
   <v>       0.80405164       0.36101722       0.50222575 </v>
   <v>       0.85855317       0.38834865       0.50293438 </v>
   <v>       0.88663754       0.44331877       0.50346703 </v>
   <v>       0.85855317       0.47020452       0.50293438 </v>
   <v>       0.80405164       0.44303442       0.50222575 </v>
   <v>       0.47234276       0.52765724       0.50242218 </v>
   <v>       0.48614813       0.51385187       0.56296339 </v>
   <v>       0.51355109       0.48644891       0.56517256 </v>
   <v>       0.52751239       0.47248761       0.50422729 </v>
   <v>       0.52762909       0.47237091       0.63138727 </v>
   <v>       0.47234276       0.94468552       0.50242218 </v>
   <v>       0.48614813       0.97229626       0.56296339 </v>
   <v>       0.51355109       0.02710218       0.56517256 </v>
   <v>       0.52751239       0.05502477       0.50422729 </v>
   <v>       0.52762909       0.05525819       0.63138727 </v>
   <v>       0.05531448       0.52765724       0.50242218 </v>
   <v>       0.97289782       0.48644891       0.56517256 </v>
   <v>       0.94497523       0.47248761       0.50422729 </v>
   <v>       0.94474181       0.47237091       0.63138727 </v>
   <v>       0.51375227       0.48624773       0.44363423 </v>
   <v>       0.48645150       0.51354850       0.44239870 </v>
   <v>       0.51375227       0.02750455       0.44363423 </v>
   <v>       0.48645150       0.97290300       0.44239870 </v>
   <v>       0.97249545       0.48624773       0.44363423 </v>
  </varray>
 </structure>
</modeling>
