<?xml version="1.0" encoding="ISO-8859-1"?>
<modeling>
 <generator>
  <i name="program" type="string">vasp </i>
  <i name="version" type="string">5.4.4.18Apr17-6-g9f103f2a35  </i>
  <i name="subversion" type="string">(build Jun 07 2020 16:50:00) complex            parallel </i>
  <i name="platform" type="string">LinuxIFC </i>
  <i name="date" type="string">2023 02 18 </i>
  <i name="time" type="string">23:47:13 </i>
 </generator>
 <incar>
  <i type="string" name="SYSTEM">Simulation for cell shape cell volume r</i>
  <i type="int" name="ISTART">     1</i>
  <i type="string" name="PREC">high</i>
  <i type="string" name="ALGO">48</i>
  <i type="int" name="ICHARG">    11</i>
  <i type="int" name="NELM">   200</i>
  <i type="int" name="IBRION">    -1</i>
  <i name="EDIFF">      0.00001000</i>
  <i name="EDIFFG">     -0.01000000</i>
  <i type="int" name="NSW">     0</i>
  <i type="int" name="ISIF">     2</i>
  <i name="ENCUT">    500.00000000</i>
  <i name="POTIM">      0.30000000</i>
  <i type="string" name="LREAL">A</i>
  <i type="int" name="ISMEAR">     0</i>
  <i name="SIGMA">      0.01000000</i>
  <i type="int" name="NWRITE">     0</i>
  <i type="logical" name="LWAVE"> F  </i>
  <i type="logical" name="LCHARG"> F  </i>
  <v type="int" name="KPOINT_BSE">    -1     0     0     0</v>
  <i type="int" name="NELM">   200</i>
  <i type="string" name="GGA">PE</i>
 </incar>
 <structure name="primitive_cell" >
  <crystal>
   <varray name="basis" >
    <v>      22.00612530      -0.06796096       0.00000000 </v>
    <v>     -11.05189644      19.04727761       0.00000000 </v>
    <v>       0.00000000       0.00000000      20.00000000 </v>
   </varray>
   <i name="volume">   8368.11360668 </i>
   <varray name="rec_basis" >
    <v>       0.04552347       0.02641431       0.00000000 </v>
    <v>       0.00016243       0.05259519       0.00000000 </v>
    <v>       0.00000000       0.00000000       0.05000000 </v>
   </varray>
  </crystal>
  <varray name="positions" >
   <v>      -0.05773828       0.22302880       0.45861903 </v>
   <v>      -0.08402352       0.17889427       0.49334726 </v>
   <v>      -0.05169320       0.14288499      -0.49453615 </v>
   <v>      -0.15025168       0.15992944      -0.47876679 </v>
   <v>      -0.09531219       0.29713249       0.48724923 </v>
   <v>      -0.15217737       0.26606579       0.48011946 </v>
   <v>      -0.18922891       0.19486955       0.49936785 </v>
   <v>      -0.08249161       0.08772533      -0.45241713 </v>
   <v>      -0.17936610       0.10817202      -0.43338508 </v>
   <v>      -0.14489336       0.07394452      -0.41859093 </v>
   <v>      -0.18791263       0.29719852       0.45188338 </v>
   <v>      -0.26303918       0.15607705       0.49492820 </v>
   <v>       0.05577754       0.13790533      -0.44743043 </v>
   <v>      -0.04769909       0.04554780      -0.44557766 </v>
   <v>      -0.29145096       0.10202221      -0.48693045 </v>
   <v>       0.02583751       0.08072524      -0.44519913 </v>
   <v>      -0.15671684       0.37284342       0.43596924 </v>
   <v>      -0.26072003       0.25601419       0.44228810 </v>
   <v>      -0.08447060       0.42287845      -0.47895386 </v>
   <v>      -0.29898252       0.18650912       0.46539163 </v>
   <v>      -0.17142701       0.02602240      -0.36322131 </v>
   <v>      -0.11593082       0.42799643       0.48158496 </v>
   <v>      -0.08642302      -0.02822375      -0.44549736 </v>
   <v>      -0.17836455       0.38865260       0.37958857 </v>
   <v>      -0.14355881      -0.05480599      -0.44852493 </v>
   <v>      -0.28829805       0.28026839       0.41947123 </v>
   <v>       0.06159358       0.04298399      -0.44385557 </v>
   <v>       0.16800929       0.14833619      -0.47363320 </v>
   <v>      -0.18974965      -0.01030028      -0.31614859 </v>
   <v>      -0.37631968       0.15335504       0.45966466 </v>
   <v>      -0.11920301       0.48676552       0.48036636 </v>
   <v>      -0.05159342      -0.06694236      -0.44587569 </v>
   <v>       0.13933834       0.08307718      -0.44753949 </v>
   <v>       0.25694174       0.23740607       0.49413905 </v>
   <v>      -0.35206472       0.16266764       0.28409309 </v>
   <v>      -0.17325779       0.45164416       0.37417130 </v>
   <v>      -0.37778886       0.16176889       0.33545952 </v>
   <v>       0.02245528      -0.03061514      -0.44452545 </v>
   <v>       0.23676686       0.18507224      -0.48441287 </v>
   <v>      -0.41704487       0.12832368      -0.48584862 </v>
   <v>      -0.40787120       0.15909886       0.39969433 </v>
   <v>      -0.15507472       0.49621331       0.43119372 </v>
   <v>      -0.25215966      -0.16135717      -0.39382764 </v>
   <v>      -0.18842799       0.47142658       0.31085588 </v>
   <v>       0.04801515      -0.06186340      -0.44676104 </v>
   <v>      -0.08868933      -0.14443936      -0.45346795 </v>
   <v>      -0.21012809      -0.17359599      -0.41533117 </v>
   <v>       0.18554347       0.05889989      -0.42767283 </v>
   <v>       0.28144294       0.15764359      -0.47140557 </v>
   <v>      -0.16175643      -0.19222958      -0.44365351 </v>
   <v>      -0.47969552       0.12403800      -0.48540599 </v>
   <v>      -0.46602373       0.16400054       0.40267771 </v>
   <v>       0.36831016       0.29861733      -0.49755692 </v>
   <v>      -0.18598837      -0.45878878       0.44276296 </v>
   <v>      -0.19971325       0.48992464       0.25998302 </v>
   <v>       0.25484141       0.09501918      -0.44116778 </v>
   <v>      -0.04855755      -0.17141966      -0.47351232 </v>
   <v>      -0.28568581       0.45835009       0.40508223 </v>
   <v>      -0.49895746       0.15351282       0.46136129 </v>
   <v>       0.16245790      -0.00485739      -0.39044185 </v>
   <v>       0.48720557       0.10104370      -0.44128148 </v>
   <v>      -0.25782374      -0.48981694       0.42827850 </v>
   <v>      -0.09552525      -0.36919199       0.48518167 </v>
   <v>       0.39170867       0.26628548       0.49181416 </v>
   <v>       0.35581714       0.19402763      -0.49310750 </v>
   <v>      -0.45886875       0.28082142       0.42628771 </v>
   <v>      -0.19224524      -0.26031318      -0.46095814 </v>
   <v>      -0.15122828      -0.39254265       0.47331702 </v>
   <v>       0.14454254      -0.05631860      -0.35980715 </v>
   <v>      -0.07844504      -0.23927075      -0.48789429 </v>
   <v>       0.45684319       0.18630774       0.46953578 </v>
   <v>      -0.15214177      -0.28486398      -0.48542188 </v>
   <v>       0.48924754       0.25685128       0.44947601 </v>
   <v>       0.45848324       0.29788282       0.46257748 </v>
   <v>      -0.29663091      -0.45827386       0.44779810 </v>
   <v>       0.38988309       0.15490336       0.49824681 </v>
   <v>      -0.04282734      -0.25767277       0.49675979 </v>
   <v>       0.36210892       0.09958160      -0.48736104 </v>
   <v>      -0.18832006      -0.35777196       0.48868870 </v>
   <v>      -0.49704780       0.37378656       0.44808145 </v>
   <v>      -0.39659784       0.45641802       0.38542499 </v>
   <v>      -0.48168940       0.42134083       0.49666180 </v>
   <v>      -0.37387693       0.49659923       0.44025475 </v>
   <v>      -0.28958096      -0.36513616       0.49286307 </v>
   <v>      -0.45965833       0.39766298       0.38673999 </v>
   <v>      -0.26158575      -0.39205584       0.47793628 </v>
   <v>      -0.48733952       0.35921392       0.32586438 </v>
   <v>       0.48734359       0.32667276       0.27731327 </v>
   <v>      -0.42304934       0.48389169       0.49197002 </v>
   <v>      -0.41311189      -0.47765277      -0.46880473 </v>
  </varray>
 </structure>
 <varray name="primitive_index" >
  <v type="int" >        1 </v>
  <v type="int" >       22 </v>
  <v type="int" >       73 </v>
  <v type="int" >       23 </v>
  <v type="int" >        6 </v>
  <v type="int" >       38 </v>
  <v type="int" >       29 </v>
  <v type="int" >       33 </v>
  <v type="int" >       78 </v>
  <v type="int" >       34 </v>
  <v type="int" >       36 </v>
  <v type="int" >       25 </v>
  <v type="int" >        3 </v>
  <v type="int" >       19 </v>
  <v type="int" >        2 </v>
  <v type="int" >       21 </v>
  <v type="int" >       39 </v>
  <v type="int" >       37 </v>
  <v type="int" >        7 </v>
  <v type="int" >       24 </v>
  <v type="int" >       35 </v>
  <v type="int" >       40 </v>
  <v type="int" >       20 </v>
  <v type="int" >       74 </v>
  <v type="int" >        4 </v>
  <v type="int" >        5 </v>
  <v type="int" >       45 </v>
  <v type="int" >       83 </v>
  <v type="int" >       79 </v>
  <v type="int" >       26 </v>
  <v type="int" >       81 </v>
  <v type="int" >       43 </v>
  <v type="int" >       69 </v>
  <v type="int" >       12 </v>
  <v type="int" >       75 </v>
  <v type="int" >       31 </v>
  <v type="int" >       28 </v>
  <v type="int" >       44 </v>
  <v type="int" >       51 </v>
  <v type="int" >       80 </v>
  <v type="int" >       27 </v>
  <v type="int" >       30 </v>
  <v type="int" >       87 </v>
  <v type="int" >       32 </v>
  <v type="int" >       15 </v>
  <v type="int" >       66 </v>
  <v type="int" >       68 </v>
  <v type="int" >       70 </v>
  <v type="int" >       55 </v>
  <v type="int" >       67 </v>
  <v type="int" >       42 </v>
  <v type="int" >       76 </v>
  <v type="int" >       10 </v>
  <v type="int" >       46 </v>
  <v type="int" >       77 </v>
  <v type="int" >       88 </v>
  <v type="int" >       82 </v>
  <v type="int" >       13 </v>
  <v type="int" >       41 </v>
  <v type="int" >       71 </v>
  <v type="int" >        8 </v>
  <v type="int" >       61 </v>
  <v type="int" >        9 </v>
  <v type="int" >       49 </v>
  <v type="int" >       58 </v>
  <v type="int" >       14 </v>
  <v type="int" >       86 </v>
  <v type="int" >       47 </v>
  <v type="int" >       89 </v>
  <v type="int" >       50 </v>
  <v type="int" >       63 </v>
  <v type="int" >       54 </v>
  <v type="int" >       59 </v>
  <v type="int" >       48 </v>
  <v type="int" >       60 </v>
  <v type="int" >       64 </v>
  <v type="int" >       11 </v>
  <v type="int" >       17 </v>
  <v type="int" >       57 </v>
  <v type="int" >       52 </v>
  <v type="int" >       84 </v>
  <v type="int" >       90 </v>
  <v type="int" >       65 </v>
  <v type="int" >       16 </v>
  <v type="int" >       53 </v>
  <v type="int" >       62 </v>
  <v type="int" >       56 </v>
  <v type="int" >       85 </v>
  <v type="int" >       72 </v>
  <v type="int" >       18 </v>
 </varray>
 <kpoints>
  <generation param="listgenerated">
   <i name="divisions" type="int">      20 </i>
   <v>       0.00000000       0.00000000       0.00000000 </v>
   <v>       0.50000000      -0.50000000       0.00000000 </v>
   <v>       0.66743875      -0.33209404       0.00000000 </v>
   <v>       0.50000000       0.00000000       0.00000000 </v>
   <v>       0.33256125       0.33209404       0.00000000 </v>
   <v>       0.00000000       0.50000000       0.00000000 </v>
   <v>       0.00000000       0.00000000       0.00000000 </v>
  </generation>
  <varray name="kpointlist" >
   <v>       0.00000000       0.00000000       0.00000000 </v>
   <v>       0.02631579      -0.02631579       0.00000000 </v>
   <v>       0.05263158      -0.05263158       0.00000000 </v>
   <v>       0.07894737      -0.07894737       0.00000000 </v>
   <v>       0.10526316      -0.10526316       0.00000000 </v>
   <v>       0.13157895      -0.13157895       0.00000000 </v>
   <v>       0.15789474      -0.15789474       0.00000000 </v>
   <v>       0.18421053      -0.18421053       0.00000000 </v>
   <v>       0.21052632      -0.21052632       0.00000000 </v>
   <v>       0.23684211      -0.23684211       0.00000000 </v>
   <v>       0.26315789      -0.26315789       0.00000000 </v>
   <v>       0.28947368      -0.28947368       0.00000000 </v>
   <v>       0.31578947      -0.31578947       0.00000000 </v>
   <v>       0.34210526      -0.34210526       0.00000000 </v>
   <v>       0.36842105      -0.36842105       0.00000000 </v>
   <v>       0.39473684      -0.39473684       0.00000000 </v>
   <v>       0.42105263      -0.42105263       0.00000000 </v>
   <v>       0.44736842      -0.44736842       0.00000000 </v>
   <v>       0.47368421      -0.47368421       0.00000000 </v>
   <v>       0.50000000      -0.50000000       0.00000000 </v>
   <v>       0.50000000      -0.50000000       0.00000000 </v>
   <v>       0.50881257      -0.49116284       0.00000000 </v>
   <v>       0.51762513      -0.48232569       0.00000000 </v>
   <v>       0.52643770      -0.47348853       0.00000000 </v>
   <v>       0.53525026      -0.46465138       0.00000000 </v>
   <v>       0.54406283      -0.45581422       0.00000000 </v>
   <v>       0.55287540      -0.44697707       0.00000000 </v>
   <v>       0.56168796      -0.43813991       0.00000000 </v>
   <v>       0.57050053      -0.42930275       0.00000000 </v>
   <v>       0.57931309      -0.42046560       0.00000000 </v>
   <v>       0.58812566      -0.41162844       0.00000000 </v>
   <v>       0.59693823      -0.40279129       0.00000000 </v>
   <v>       0.60575079      -0.39395413       0.00000000 </v>
   <v>       0.61456336      -0.38511698       0.00000000 </v>
   <v>       0.62337592      -0.37627982       0.00000000 </v>
   <v>       0.63218849      -0.36744267       0.00000000 </v>
   <v>       0.64100106      -0.35860551       0.00000000 </v>
   <v>       0.64981362      -0.34976835       0.00000000 </v>
   <v>       0.65862619      -0.34093120       0.00000000 </v>
   <v>       0.66743875      -0.33209404       0.00000000 </v>
   <v>       0.66743875      -0.33209404       0.00000000 </v>
   <v>       0.65862619      -0.31461541       0.00000000 </v>
   <v>       0.64981362      -0.29713677       0.00000000 </v>
   <v>       0.64100106      -0.27965814       0.00000000 </v>
   <v>       0.63218849      -0.26217951       0.00000000 </v>
   <v>       0.62337592      -0.24470087       0.00000000 </v>
   <v>       0.61456336      -0.22722224       0.00000000 </v>
   <v>       0.60575079      -0.20974361       0.00000000 </v>
   <v>       0.59693823      -0.19226497       0.00000000 </v>
   <v>       0.58812566      -0.17478634       0.00000000 </v>
   <v>       0.57931309      -0.15730770       0.00000000 </v>
   <v>       0.57050053      -0.13982907       0.00000000 </v>
   <v>       0.56168796      -0.12235044       0.00000000 </v>
   <v>       0.55287540      -0.10487180       0.00000000 </v>
   <v>       0.54406283      -0.08739317       0.00000000 </v>
   <v>       0.53525026      -0.06991454       0.00000000 </v>
   <v>       0.52643770      -0.05243590       0.00000000 </v>
   <v>       0.51762513      -0.03495727       0.00000000 </v>
   <v>       0.50881257      -0.01747863       0.00000000 </v>
   <v>       0.50000000       0.00000000       0.00000000 </v>
   <v>       0.50000000       0.00000000       0.00000000 </v>
   <v>       0.49118743       0.01747863       0.00000000 </v>
   <v>       0.48237487       0.03495727       0.00000000 </v>
   <v>       0.47356230       0.05243590       0.00000000 </v>
   <v>       0.46474974       0.06991454       0.00000000 </v>
   <v>       0.45593717       0.08739317       0.00000000 </v>
   <v>       0.44712460       0.10487180       0.00000000 </v>
   <v>       0.43831204       0.12235044       0.00000000 </v>
   <v>       0.42949947       0.13982907       0.00000000 </v>
   <v>       0.42068691       0.15730770       0.00000000 </v>
   <v>       0.41187434       0.17478634       0.00000000 </v>
   <v>       0.40306177       0.19226497       0.00000000 </v>
   <v>       0.39424921       0.20974361       0.00000000 </v>
   <v>       0.38543664       0.22722224       0.00000000 </v>
   <v>       0.37662408       0.24470087       0.00000000 </v>
   <v>       0.36781151       0.26217951       0.00000000 </v>
   <v>       0.35899894       0.27965814       0.00000000 </v>
   <v>       0.35018638       0.29713677       0.00000000 </v>
   <v>       0.34137381       0.31461541       0.00000000 </v>
   <v>       0.33256125       0.33209404       0.00000000 </v>
   <v>       0.33256125       0.33209404       0.00000000 </v>
   <v>       0.31505802       0.34093120       0.00000000 </v>
   <v>       0.29755480       0.34976835       0.00000000 </v>
   <v>       0.28005158       0.35860551       0.00000000 </v>
   <v>       0.26254835       0.36744267       0.00000000 </v>
   <v>       0.24504513       0.37627982       0.00000000 </v>
   <v>       0.22754191       0.38511698       0.00000000 </v>
   <v>       0.21003868       0.39395413       0.00000000 </v>
   <v>       0.19253546       0.40279129       0.00000000 </v>
   <v>       0.17503223       0.41162844       0.00000000 </v>
   <v>       0.15752901       0.42046560       0.00000000 </v>
   <v>       0.14002579       0.42930275       0.00000000 </v>
   <v>       0.12252256       0.43813991       0.00000000 </v>
   <v>       0.10501934       0.44697707       0.00000000 </v>
   <v>       0.08751612       0.45581422       0.00000000 </v>
   <v>       0.07001289       0.46465138       0.00000000 </v>
   <v>       0.05250967       0.47348853       0.00000000 </v>
   <v>       0.03500645       0.48232569       0.00000000 </v>
   <v>       0.01750322       0.49116284       0.00000000 </v>
   <v>      -0.00000000       0.50000000       0.00000000 </v>
   <v>       0.00000000       0.50000000       0.00000000 </v>
   <v>       0.00000000       0.47368421       0.00000000 </v>
   <v>       0.00000000       0.44736842       0.00000000 </v>
   <v>       0.00000000       0.42105263       0.00000000 </v>
   <v>       0.00000000       0.39473684       0.00000000 </v>
   <v>       0.00000000       0.36842105       0.00000000 </v>
   <v>       0.00000000       0.34210526       0.00000000 </v>
   <v>       0.00000000       0.31578947       0.00000000 </v>
   <v>       0.00000000       0.28947368       0.00000000 </v>
   <v>       0.00000000       0.26315789       0.00000000 </v>
   <v>       0.00000000       0.23684211       0.00000000 </v>
   <v>       0.00000000       0.21052632       0.00000000 </v>
   <v>       0.00000000       0.18421053       0.00000000 </v>
   <v>       0.00000000       0.15789474       0.00000000 </v>
   <v>       0.00000000       0.13157895       0.00000000 </v>
   <v>       0.00000000       0.10526316       0.00000000 </v>
   <v>       0.00000000       0.07894737       0.00000000 </v>
   <v>       0.00000000       0.05263158       0.00000000 </v>
   <v>       0.00000000       0.02631579       0.00000000 </v>
   <v>       0.00000000       0.00000000       0.00000000 </v>
  </varray>
  <varray name="weights" >
   <v>       0.00833333 </v>
   <v>       0.00833333 </v>
   <v>       0.00833333 </v>
   <v>       0.00833333 </v>
   <v>       0.00833333 </v>
   <v>       0.00833333 </v>
   <v>       0.00833333 </v>
   <v>       0.00833333 </v>
   <v>       0.00833333 </v>
   <v>       0.00833333 </v>
   <v>       0.00833333 </v>
   <v>       0.00833333 </v>
   <v>       0.00833333 </v>
   <v>       0.00833333 </v>
   <v>       0.00833333 </v>
   <v>       0.00833333 </v>
   <v>       0.00833333 </v>
   <v>       0.00833333 </v>
   <v>       0.00833333 </v>
   <v>       0.00833333 </v>
   <v>       0.00833333 </v>
   <v>       0.00833333 </v>
   <v>       0.00833333 </v>
   <v>       0.00833333 </v>
   <v>       0.00833333 </v>
   <v>       0.00833333 </v>
   <v>       0.00833333 </v>
   <v>       0.00833333 </v>
   <v>       0.00833333 </v>
   <v>       0.00833333 </v>
   <v>       0.00833333 </v>
   <v>       0.00833333 </v>
   <v>       0.00833333 </v>
   <v>       0.00833333 </v>
   <v>       0.00833333 </v>
   <v>       0.00833333 </v>
   <v>       0.00833333 </v>
   <v>       0.00833333 </v>
   <v>       0.00833333 </v>
   <v>       0.00833333 </v>
   <v>       0.00833333 </v>
   <v>       0.00833333 </v>
   <v>       0.00833333 </v>
   <v>       0.00833333 </v>
   <v>       0.00833333 </v>
   <v>       0.00833333 </v>
   <v>       0.00833333 </v>
   <v>       0.00833333 </v>
   <v>       0.00833333 </v>
   <v>       0.00833333 </v>
   <v>       0.00833333 </v>
   <v>       0.00833333 </v>
   <v>       0.00833333 </v>
   <v>       0.00833333 </v>
   <v>       0.00833333 </v>
   <v>       0.00833333 </v>
   <v>       0.00833333 </v>
   <v>       0.00833333 </v>
   <v>       0.00833333 </v>
   <v>       0.00833333 </v>
   <v>       0.00833333 </v>
   <v>       0.00833333 </v>
   <v>       0.00833333 </v>
   <v>       0.00833333 </v>
   <v>       0.00833333 </v>
   <v>       0.00833333 </v>
   <v>       0.00833333 </v>
   <v>       0.00833333 </v>
   <v>       0.00833333 </v>
   <v>       0.00833333 </v>
   <v>       0.00833333 </v>
   <v>       0.00833333 </v>
   <v>       0.00833333 </v>
   <v>       0.00833333 </v>
   <v>       0.00833333 </v>
   <v>       0.00833333 </v>
   <v>       0.00833333 </v>
   <v>       0.00833333 </v>
   <v>       0.00833333 </v>
   <v>       0.00833333 </v>
   <v>       0.00833333 </v>
   <v>       0.00833333 </v>
   <v>       0.00833333 </v>
   <v>       0.00833333 </v>
   <v>       0.00833333 </v>
   <v>       0.00833333 </v>
   <v>       0.00833333 </v>
   <v>       0.00833333 </v>
   <v>       0.00833333 </v>
   <v>       0.00833333 </v>
   <v>       0.00833333 </v>
   <v>       0.00833333 </v>
   <v>       0.00833333 </v>
   <v>       0.00833333 </v>
   <v>       0.00833333 </v>
   <v>       0.00833333 </v>
   <v>       0.00833333 </v>
   <v>       0.00833333 </v>
   <v>       0.00833333 </v>
   <v>       0.00833333 </v>
   <v>       0.00833333 </v>
   <v>       0.00833333 </v>
   <v>       0.00833333 </v>
   <v>       0.00833333 </v>
   <v>       0.00833333 </v>
   <v>       0.00833333 </v>
   <v>       0.00833333 </v>
   <v>       0.00833333 </v>
   <v>       0.00833333 </v>
   <v>       0.00833333 </v>
   <v>       0.00833333 </v>
   <v>       0.00833333 </v>
   <v>       0.00833333 </v>
   <v>       0.00833333 </v>
   <v>       0.00833333 </v>
   <v>       0.00833333 </v>
   <v>       0.00833333 </v>
   <v>       0.00833333 </v>
   <v>       0.00833333 </v>
   <v>       0.00833333 </v>
  </varray>
 </kpoints>
 <parameters>
  <separator name="general" >
   <i type="string" name="SYSTEM">Simulation for cell shape cell volume r</i>
   <i type="logical" name="LCOMPAT"> F  </i>
  </separator>
  <separator name="electronic" >
   <i type="string" name="PREC">high</i>
   <i name="ENMAX">    500.00000000</i>
   <i name="ENAUG">    644.87300000</i>
   <i name="EDIFF">      0.00001000</i>
   <i type="int" name="IALGO">    38</i>
   <i type="int" name="IWAVPR">    10</i>
   <i type="int" name="NBANDS">   208</i>
   <i name="NELECT">    324.00000000</i>
   <i type="int" name="TURBO">     0</i>
   <i type="int" name="IRESTART">     0</i>
   <i type="int" name="NREBOOT">     0</i>
   <i type="int" name="NMIN">     0</i>
   <i name="EREF">      0.00000000</i>
   <separator name="electronic smearing" >
    <i type="int" name="ISMEAR">     0</i>
    <i name="SIGMA">      0.01000000</i>
    <i name="KSPACING">      0.50000000</i>
    <i type="logical" name="KGAMMA"> T  </i>
   </separator>
   <separator name="electronic projectors" >
    <i type="logical" name="LREAL"> T  </i>
    <v name="ROPT">     -0.00040000     -0.00040000     -0.00040000</v>
    <i type="int" name="LMAXPAW">  -100</i>
    <i type="int" name="LMAXMIX">     2</i>
    <i type="logical" name="NLSPLINE"> F  </i>
   </separator>
   <separator name="electronic startup" >
    <i type="int" name="ISTART">     1</i>
    <i type="int" name="ICHARG">    11</i>
    <i type="int" name="INIWAV">     1</i>
   </separator>
   <separator name="electronic spin" >
    <i type="int" name="ISPIN">     1</i>
    <i type="logical" name="LNONCOLLINEAR"> F  </i>
    <v name="MAGMOM">      1.00000000      1.00000000      1.00000000      1.00000000      1.00000000      1.00000000      1.00000000      1.00000000      1.00000000      1.00000000      1.00000000      1.00000000      1.00000000      1.00000000      1.00000000      1.00000000      1.00000000      1.00000000      1.00000000      1.00000000
      1.00000000      1.00000000      1.00000000      1.00000000      1.00000000      1.00000000      1.00000000      1.00000000      1.00000000      1.00000000      1.00000000      1.00000000      1.00000000      1.00000000      1.00000000      1.00000000      1.00000000      1.00000000      1.00000000      1.00000000
      1.00000000      1.00000000      1.00000000      1.00000000      1.00000000      1.00000000      1.00000000      1.00000000      1.00000000      1.00000000      1.00000000      1.00000000      1.00000000      1.00000000      1.00000000      1.00000000      1.00000000      1.00000000      1.00000000      1.00000000
      1.00000000      1.00000000      1.00000000      1.00000000      1.00000000      1.00000000      1.00000000      1.00000000      1.00000000      1.00000000      1.00000000      1.00000000      1.00000000      1.00000000      1.00000000      1.00000000      1.00000000      1.00000000      1.00000000      1.00000000
      1.00000000      1.00000000      1.00000000      1.00000000      1.00000000      1.00000000      1.00000000      1.00000000      1.00000000      1.00000000</v>
    <i name="NUPDOWN">     -1.00000000</i>
    <i type="logical" name="LSORBIT"> F  </i>
    <v name="SAXIS">      0.00000000      0.00000000      1.00000000</v>
    <i type="logical" name="LSPIRAL"> F  </i>
    <v name="QSPIRAL">      0.00000000      0.00000000      0.00000000</v>
    <i type="logical" name="LZEROZ"> F  </i>
   </separator>
   <separator name="electronic exchange-correlation" >
    <i type="logical" name="LASPH"> F  </i>
    <i type="logical" name="LMETAGGA"> F  </i>
   </separator>
   <separator name="electronic convergence" >
    <i type="int" name="NELM">   200</i>
    <i type="int" name="NELMDL">     0</i>
    <i type="int" name="NELMIN">     2</i>
    <i name="ENINI">    500.00000000</i>
    <separator name="electronic convergence detail" >
     <i type="logical" name="LDIAG"> T  </i>
     <i type="logical" name="LSUBROT"> F  </i>
     <i name="WEIMIN">      0.00000000</i>
     <i name="EBREAK">      0.00000001</i>
     <i name="DEPER">      0.30000000</i>
     <i type="int" name="NRMM">     4</i>
     <i name="TIME">      0.40000000</i>
    </separator>
   </separator>
   <separator name="electronic mixer" >
    <i name="AMIX">      0.40000000</i>
    <i name="BMIX">      1.00000000</i>
    <i name="AMIN">      0.10000000</i>
    <i name="AMIX_MAG">      1.60000000</i>
    <i name="BMIX_MAG">      1.00000000</i>
    <separator name="electronic mixer details" >
     <i type="int" name="IMIX">     4</i>
     <i type="logical" name="MIXFIRST"> F  </i>
     <i type="int" name="MAXMIX">   -45</i>
     <i name="WC">    100.00000000</i>
     <i type="int" name="INIMIX">     1</i>
     <i type="int" name="MIXPRE">     1</i>
     <i type="int" name="MREMOVE">     5</i>
    </separator>
   </separator>
   <separator name="electronic dipolcorrection" >
    <i type="logical" name="LDIPOL"> F  </i>
    <i type="logical" name="LMONO"> F  </i>
    <i type="int" name="IDIPOL">     0</i>
    <i name="EPSILON">      1.00000000</i>
    <v name="DIPOL">   -100.00000000   -100.00000000   -100.00000000</v>
    <i name="EFIELD">      0.00000000</i>
   </separator>
  </separator>
  <separator name="grids" >
   <i type="int" name="NGX">   160</i>
   <i type="int" name="NGY">   162</i>
   <i type="int" name="NGZ">   150</i>
   <i type="int" name="NGXF">   250</i>
   <i type="int" name="NGYF">   250</i>
   <i type="int" name="NGZF">   224</i>
   <i type="logical" name="ADDGRID"> F  </i>
  </separator>
  <separator name="ionic" >
   <i type="int" name="NSW">     0</i>
   <i type="int" name="IBRION">    -1</i>
   <i type="int" name="MDALGO">     0</i>
   <i type="int" name="ISIF">     2</i>
   <i name="PSTRESS">      0.00000000</i>
   <i name="EDIFFG">     -0.01000000</i>
   <i type="int" name="NFREE">     0</i>
   <i name="POTIM">      0.30000000</i>
   <i name="SMASS">     -3.00000000</i>
   <i name="SCALEE">      1.00000000</i>
  </separator>
  <separator name="ionic md" >
   <i name="TEBEG">      0.00010000</i>
   <i name="TEEND">      0.00010000</i>
   <i type="int" name="NBLOCK">     1</i>
   <i type="int" name="KBLOCK">     1</i>
   <i type="int" name="NPACO">   256</i>
   <i name="APACO">     16.00000000</i>
  </separator>
  <separator name="symmetry" >
   <i type="int" name="ISYM">     2</i>
   <i name="SYMPREC">      0.00001000</i>
  </separator>
  <separator name="dos" >
   <i type="int" name="LORBIT">     0</i>
   <v name="RWIGS">     -1.00000000     -1.00000000     -1.00000000</v>
   <i type="int" name="NEDOS">   301</i>
   <i name="EMIN">     10.00000000</i>
   <i name="EMAX">    -10.00000000</i>
   <i name="EFERMI">      0.00000000</i>
  </separator>
  <separator name="writing" >
   <i type="int" name="NWRITE">     0</i>
   <i type="logical" name="LWAVE"> F  </i>
   <i type="logical" name="LDOWNSAMPLE"> F  </i>
   <i type="logical" name="LCHARG"> F  </i>
   <i type="logical" name="LPARD"> F  </i>
   <i type="logical" name="LVTOT"> F  </i>
   <i type="logical" name="LVHAR"> F  </i>
   <i type="logical" name="LELF"> F  </i>
   <i type="logical" name="LOPTICS"> F  </i>
   <v name="STM">      0.00000000      0.00000000      0.00000000      0.00000000      0.00000000      0.00000000      0.00000000</v>
  </separator>
  <separator name="performance" >
   <i type="int" name="NPAR">    16</i>
   <i type="int" name="NSIM">     4</i>
   <i type="int" name="NBLK">    -1</i>
   <i type="logical" name="LPLANE"> T  </i>
   <i type="logical" name="LSCALAPACK"> T  </i>
   <i type="logical" name="LSCAAWARE"> F  </i>
   <i type="logical" name="LSCALU"> F  </i>
   <i type="logical" name="LASYNC"> F  </i>
   <i type="logical" name="LORBITALREAL"> F  </i>
  </separator>
  <separator name="miscellaneous" >
   <i type="int" name="IDIOT">     3</i>
   <i type="int" name="ISPECIAL">     0</i>
   <i type="logical" name="LMUSIC"> F  </i>
   <v name="POMASS">      1.00000000     12.01100000     14.00100000</v>
   <v name="DARWINR">      0.00000000      0.00000000      0.00000000</v>
   <v name="DARWINV">      1.00000000      1.00000000      1.00000000</v>
   <i type="logical" name="LCORR"> T  </i>
  </separator>
  <i type="logical" name="GGA_COMPAT"> T  </i>
  <i type="logical" name="LBERRY"> F  </i>
  <i type="int" name="ICORELEVEL">     0</i>
  <i type="logical" name="LDAU"> F  </i>
  <i type="int" name="I_CONSTRAINED_M">     0</i>
  <separator name="electronic exchange-correlation" >
   <i type="string" name="GGA">PE</i>
   <i type="int" name="VOSKOWN">     0</i>
   <i type="logical" name="LHFCALC"> F  </i>
   <i type="string" name="PRECFOCK"></i>
   <i type="logical" name="LSYMGRAD"> F  </i>
   <i type="logical" name="LHFONE"> F  </i>
   <i type="logical" name="LRHFCALC"> F  </i>
   <i type="logical" name="LTHOMAS"> F  </i>
   <i type="logical" name="LMODELHF"> F  </i>
   <i name="ENCUT4O">     -1.00000000</i>
   <i type="int" name="EXXOEP">     0</i>
   <i type="int" name="FOURORBIT">     0</i>
   <i name="AEXX">      0.00000000</i>
   <i name="HFALPHA">      0.00000000</i>
   <i name="MCALPHA">      0.00000000</i>
   <i name="ALDAX">      1.00000000</i>
   <i name="AGGAX">      1.00000000</i>
   <i name="ALDAC">      1.00000000</i>
   <i name="AGGAC">      1.00000000</i>
   <i type="int" name="NKREDX">     1</i>
   <i type="int" name="NKREDY">     1</i>
   <i type="int" name="NKREDZ">     1</i>
   <i type="logical" name="SHIFTRED"> F  </i>
   <i type="logical" name="ODDONLY"> F  </i>
   <i type="logical" name="EVENONLY"> F  </i>
   <i type="int" name="LMAXFOCK">     0</i>
   <i type="int" name="NMAXFOCKAE">     0</i>
   <i type="logical" name="LFOCKAEDFT"> F  </i>
   <i name="HFSCREEN">      0.00000000</i>
   <i name="HFSCREENC">      0.00000000</i>
   <i type="int" name="NBANDSGWLOW">     0</i>
  </separator>
  <separator name="vdW DFT" >
   <i type="logical" name="LUSE_VDW"> F  </i>
   <i name="Zab_VDW">     -0.84910000</i>
   <i name="PARAM1">      0.12340000</i>
   <i name="PARAM2">      1.00000000</i>
   <i name="PARAM3">      0.00000000</i>
  </separator>
  <separator name="model GW" >
   <i type="int" name="MODEL_GW">     0</i>
   <i name="MODEL_EPS0">     55.78742404</i>
   <i name="MODEL_ALPHA">      1.00000000</i>
  </separator>
  <separator name="linear response parameters" >
   <i type="logical" name="LEPSILON"> F  </i>
   <i type="logical" name="LRPA"> F  </i>
   <i type="logical" name="LNABLA"> F  </i>
   <i type="logical" name="LVEL"> F  </i>
   <i type="int" name="KINTER">     0</i>
   <i name="CSHIFT">      0.10000000</i>
   <i name="OMEGAMAX">     -1.00000000</i>
   <i name="DEG_THRESHOLD">      0.00200000</i>
   <i name="RTIME">     -0.10000000</i>
   <i name="WPLASMAI">      0.00000000</i>
   <v name="DFIELD">      0.00000000      0.00000000      0.00000000</v>
   <v name="WPLASMA">      0.00000000      0.00000000      0.00000000      0.00000000      0.00000000      0.00000000      0.00000000      0.00000000      0.00000000</v>
  </separator>
  <separator name="orbital magnetization" >
   <i type="logical" name="NUCIND"> F  </i>
   <v name="MAGPOS">      0.00000000      0.00000000      0.00000000</v>
   <i type="logical" name="LNICSALL"> T  </i>
   <i type="logical" name="ORBITALMAG"> F  </i>
   <i type="logical" name="LMAGBLOCH"> F  </i>
   <i type="logical" name="LCHIMAG"> F  </i>
   <i type="logical" name="LGAUGE"> T  </i>
   <i type="int" name="MAGATOM">     0</i>
   <v name="MAGDIPOL">      0.00000000      0.00000000      0.00000000</v>
   <v name="AVECCONST">      0.00000000      0.00000000      0.00000000</v>
  </separator>
  <separator name="response functions" >
   <i type="logical" name="LADDER"> F  </i>
   <i type="logical" name="LRPAFORCE"> F  </i>
   <i type="logical" name="LFXC"> F  </i>
   <i type="logical" name="LHARTREE"> T  </i>
   <i type="int" name="IBSE">     0</i>
   <v type="int" name="KPOINT">    -1     0     0     0</v>
   <i type="logical" name="LTCTE"> F  </i>
   <i type="logical" name="LTETE"> F  </i>
   <i type="logical" name="LTRIPLET"> F  </i>
   <i type="logical" name="LFXCEPS"> F  </i>
   <i type="logical" name="LFXHEG"> F  </i>
   <i type="int" name="NATURALO">     2</i>
   <i type="logical" name="L2ORDER"> F  </i>
   <i type="logical" name="LMP2LT"> F  </i>
   <i type="logical" name="LUSEW"> F  </i>
   <i name="ENCUTGW">     -2.00000000</i>
   <i name="ENCUTGWSOFT">     -2.00000000</i>
   <i name="ENCUTLF">     -1.00000000</i>
   <i type="int" name="LMAXMP2">    -1</i>
   <i name="SCISSOR">      0.00000000</i>
   <i type="int" name="NOMEGA">     0</i>
   <i type="int" name="NOMEGAR">     0</i>
   <i type="int" name="NBANDSGW">    -1</i>
   <i type="int" name="NBANDSO">    -1</i>
   <i type="int" name="NBANDSV">    -1</i>
   <i type="int" name="NELM">   200</i>
   <i type="int" name="NELMHF">     1</i>
   <i type="int" name="DIM">     3</i>
   <i type="int" name="ANTIRES">     0</i>
   <i name="OMEGAMAX">    -30.00000000</i>
   <i name="OMEGAMIN">    -30.00000000</i>
   <i name="OMEGATL">   -200.00000000</i>
   <i type="int" name="OMEGAGRID">   140</i>
   <i name="CSHIFT">     -0.10000000</i>
   <i type="logical" name="SELFENERGY"> F  </i>
   <i type="logical" name="LSPECTRAL"> F  </i>
   <i type="logical" name="LSPECTRALGW"> F  </i>
   <i type="logical" name="LSINGLES"> F  </i>
   <i type="logical" name="LFERMIGW"> F  </i>
   <i type="logical" name="ODDONLYGW"> F  </i>
   <i type="logical" name="EVENONLYGW"> F  </i>
   <i type="int" name="NKREDLFX">     1</i>
   <i type="int" name="NKREDLFY">     1</i>
   <i type="int" name="NKREDLFZ">     1</i>
   <i type="int" name="MAXMEM">  2800</i>
   <i type="int" name="TELESCOPE">     0</i>
   <i type="int" name="TAUPAR">     1</i>
   <i type="int" name="OMEGAPAR">    -1</i>
   <i name="LAMBDA">      1.00000000</i>
  </separator>
  <separator name="External order field" >
   <i name="OFIELD_KAPPA">      0.00000000</i>
   <v name="OFIELD_K">      0.00000000      0.00000000      0.00000000</v>
   <i name="OFIELD_Q6_NEAR">      0.00000000</i>
   <i name="OFIELD_Q6_FAR">      0.00000000</i>
   <i name="OFIELD_A">      0.00000000</i>
  </separator>
  <separator name="solvation model" >
   <i type="logical" name="LSOL"> F  </i>
  </separator>
 </parameters>
 <atominfo>
  <atoms>      90 </atoms>
  <types>       3 </types>
  <array name="atoms" >
   <dimension dim="1">ion</dimension>
   <field type="string">element</field>
   <field type="int">atomtype</field>
   <set>
    <rc><c>H </c><c>   1</c></rc>
    <rc><c>H </c><c>   1</c></rc>
    <rc><c>H </c><c>   1</c></rc>
    <rc><c>H </c><c>   1</c></rc>
    <rc><c>H </c><c>   1</c></rc>
    <rc><c>H </c><c>   1</c></rc>
    <rc><c>H </c><c>   1</c></rc>
    <rc><c>H </c><c>   1</c></rc>
    <rc><c>H </c><c>   1</c></rc>
    <rc><c>H </c><c>   1</c></rc>
    <rc><c>H </c><c>   1</c></rc>
    <rc><c>H </c><c>   1</c></rc>
    <rc><c>H </c><c>   1</c></rc>
    <rc><c>H </c><c>   1</c></rc>
    <rc><c>H </c><c>   1</c></rc>
    <rc><c>H </c><c>   1</c></rc>
    <rc><c>H </c><c>   1</c></rc>
    <rc><c>H </c><c>   1</c></rc>
    <rc><c>C </c><c>   2</c></rc>
    <rc><c>C </c><c>   2</c></rc>
    <rc><c>C </c><c>   2</c></rc>
    <rc><c>C </c><c>   2</c></rc>
    <rc><c>C </c><c>   2</c></rc>
    <rc><c>C </c><c>   2</c></rc>
    <rc><c>C </c><c>   2</c></rc>
    <rc><c>C </c><c>   2</c></rc>
    <rc><c>C </c><c>   2</c></rc>
    <rc><c>C </c><c>   2</c></rc>
    <rc><c>C </c><c>   2</c></rc>
    <rc><c>C </c><c>   2</c></rc>
    <rc><c>C </c><c>   2</c></rc>
    <rc><c>C </c><c>   2</c></rc>
    <rc><c>C </c><c>   2</c></rc>
    <rc><c>C </c><c>   2</c></rc>
    <rc><c>C </c><c>   2</c></rc>
    <rc><c>C </c><c>   2</c></rc>
    <rc><c>C </c><c>   2</c></rc>
    <rc><c>C </c><c>   2</c></rc>
    <rc><c>C </c><c>   2</c></rc>
    <rc><c>C </c><c>   2</c></rc>
    <rc><c>C </c><c>   2</c></rc>
    <rc><c>C </c><c>   2</c></rc>
    <rc><c>C </c><c>   2</c></rc>
    <rc><c>C </c><c>   2</c></rc>
    <rc><c>C </c><c>   2</c></rc>
    <rc><c>C </c><c>   2</c></rc>
    <rc><c>C </c><c>   2</c></rc>
    <rc><c>C </c><c>   2</c></rc>
    <rc><c>C </c><c>   2</c></rc>
    <rc><c>C </c><c>   2</c></rc>
    <rc><c>C </c><c>   2</c></rc>
    <rc><c>C </c><c>   2</c></rc>
    <rc><c>C </c><c>   2</c></rc>
    <rc><c>C </c><c>   2</c></rc>
    <rc><c>C </c><c>   2</c></rc>
    <rc><c>C </c><c>   2</c></rc>
    <rc><c>C </c><c>   2</c></rc>
    <rc><c>C </c><c>   2</c></rc>
    <rc><c>C </c><c>   2</c></rc>
    <rc><c>C </c><c>   2</c></rc>
    <rc><c>C </c><c>   2</c></rc>
    <rc><c>C </c><c>   2</c></rc>
    <rc><c>C </c><c>   2</c></rc>
    <rc><c>C </c><c>   2</c></rc>
    <rc><c>C </c><c>   2</c></rc>
    <rc><c>C </c><c>   2</c></rc>
    <rc><c>C </c><c>   2</c></rc>
    <rc><c>C </c><c>   2</c></rc>
    <rc><c>C </c><c>   2</c></rc>
    <rc><c>C </c><c>   2</c></rc>
    <rc><c>C </c><c>   2</c></rc>
    <rc><c>C </c><c>   2</c></rc>
    <rc><c>N </c><c>   3</c></rc>
    <rc><c>N </c><c>   3</c></rc>
    <rc><c>N </c><c>   3</c></rc>
    <rc><c>N </c><c>   3</c></rc>
    <rc><c>N </c><c>   3</c></rc>
    <rc><c>N </c><c>   3</c></rc>
    <rc><c>N </c><c>   3</c></rc>
    <rc><c>N </c><c>   3</c></rc>
    <rc><c>N </c><c>   3</c></rc>
    <rc><c>N </c><c>   3</c></rc>
    <rc><c>N </c><c>   3</c></rc>
    <rc><c>N </c><c>   3</c></rc>
    <rc><c>N </c><c>   3</c></rc>
    <rc><c>N </c><c>   3</c></rc>
    <rc><c>N </c><c>   3</c></rc>
    <rc><c>N </c><c>   3</c></rc>
    <rc><c>N </c><c>   3</c></rc>
    <rc><c>N </c><c>   3</c></rc>
   </set>
  </array>
  <array name="atomtypes" >
   <dimension dim="1">type</dimension>
   <field type="int">atomspertype</field>
   <field type="string">element</field>
   <field>mass</field>
   <field>valence</field>
   <field type="string">pseudopotential</field>
   <set>
    <rc><c>  18</c><c>H </c><c>      1.00000000</c><c>      1.00000000</c><c>  PAW_PBE H 15Jun2001                   </c></rc>
    <rc><c>  54</c><c>C </c><c>     12.01100000</c><c>      4.00000000</c><c>  PAW_PBE C 08Apr2002                   </c></rc>
    <rc><c>  18</c><c>N </c><c>     14.00100000</c><c>      5.00000000</c><c>  PAW_PBE N 08Apr2002                   </c></rc>
   </set>
  </array>
 </atominfo>
 <structure name="initialpos" >
  <crystal>
   <varray name="basis" >
    <v>      22.00612530      -0.06796096       0.00000000 </v>
    <v>     -11.05189644      19.04727761       0.00000000 </v>
    <v>       0.00000000       0.00000000      20.00000000 </v>
   </varray>
   <i name="volume">   8368.11360668 </i>
   <varray name="rec_basis" >
    <v>       0.04552347       0.02641431       0.00000000 </v>
    <v>       0.00016243       0.05259519       0.00000000 </v>
    <v>       0.00000000       0.00000000       0.05000000 </v>
   </varray>
  </crystal>
  <varray name="positions" >
   <v>       0.94226172       0.22302880       0.45861903 </v>
   <v>       0.70854904       0.10202221       0.51306955 </v>
   <v>       0.05577754       0.13790533       0.55256957 </v>
   <v>       0.85644119       0.94519401       0.55147507 </v>
   <v>       0.71170195       0.28026839       0.41947123 </v>
   <v>       0.90468781       0.29713249       0.48724923 </v>
   <v>       0.91552940       0.42287845       0.52104614 </v>
   <v>       0.48720557       0.10104370       0.55871852 </v>
   <v>       0.90447475       0.63080801       0.48518167 </v>
   <v>       0.36831016       0.29861733       0.50244308 </v>
   <v>       0.95717266       0.74232723       0.49675979 </v>
   <v>       0.25694174       0.23740607       0.49413905 </v>
   <v>       0.71431419       0.45835009       0.40508223 </v>
   <v>       0.54113125       0.28082142       0.42628771 </v>
   <v>       0.04801515       0.93813660       0.55323896 </v>
   <v>       0.71041904       0.63486384       0.49286307 </v>
   <v>       0.36210892       0.09958160       0.51263896 </v>
   <v>       0.58688811       0.52234723       0.53119527 </v>
   <v>       0.95230091       0.04554780       0.55442234 </v>
   <v>       0.91357698       0.97177625       0.55450264 </v>
   <v>       0.02583751       0.08072524       0.55480087 </v>
   <v>       0.91597648       0.17889427       0.49334726 </v>
   <v>       0.84974832       0.15992944       0.52123321 </v>
   <v>       0.70101748       0.18650912       0.46539163 </v>
   <v>       0.73696082       0.15607705       0.49492820 </v>
   <v>       0.62368032       0.15335504       0.45966466 </v>
   <v>       0.59212880       0.15909886       0.39969433 </v>
   <v>       0.62221114       0.16176889       0.33545952 </v>
   <v>       0.81077109       0.19486955       0.49936785 </v>
   <v>       0.84492528       0.49621331       0.43119372 </v>
   <v>       0.82674221       0.45164416       0.37417130 </v>
   <v>       0.81157201       0.47142658       0.31085588 </v>
   <v>       0.91750839       0.08772533       0.54758287 </v>
   <v>       0.85510664       0.07394452       0.58140907 </v>
   <v>       0.82857299       0.02602240       0.63677869 </v>
   <v>       0.81208737       0.29719852       0.45188338 </v>
   <v>       0.73927997       0.25601419       0.44228810 </v>
   <v>       0.84782263       0.26606579       0.48011946 </v>
   <v>       0.84328316       0.37284342       0.43596924 </v>
   <v>       0.88406918       0.42799643       0.48158496 </v>
   <v>       0.50104254       0.15351282       0.46136129 </v>
   <v>       0.52030448       0.12403800       0.51459401 </v>
   <v>       0.94840658       0.93305764       0.55412431 </v>
   <v>       0.02245528       0.96938486       0.55547455 </v>
   <v>       0.06159358       0.04298399       0.55614443 </v>
   <v>       0.81401163       0.54121122       0.44276296 </v>
   <v>       0.84877172       0.60745735       0.47331702 </v>
   <v>       0.45848324       0.29788282       0.46257748 </v>
   <v>       0.39170867       0.26628548       0.49181416 </v>
   <v>       0.92155496       0.76072925       0.51210571 </v>
   <v>       0.23676686       0.18507224       0.51558713 </v>
   <v>       0.50295220       0.37378656       0.44808145 </v>
   <v>       0.54034167       0.39766298       0.38673999 </v>
   <v>       0.84785823       0.71513602       0.51457812 </v>
   <v>       0.28144294       0.15764359       0.52859443 </v>
   <v>       0.51266048       0.35921392       0.32586438 </v>
   <v>       0.81167994       0.64222804       0.48868870 </v>
   <v>       0.35581714       0.19402763       0.50689250 </v>
   <v>       0.48924754       0.25685128       0.44947601 </v>
   <v>       0.70336909       0.54172614       0.44779810 </v>
   <v>       0.74217626       0.51018306       0.42827850 </v>
   <v>       0.73841425       0.60794416       0.47793628 </v>
   <v>       0.45684319       0.18630774       0.46953578 </v>
   <v>       0.38988309       0.15490336       0.49824681 </v>
   <v>       0.62612307       0.49659923       0.44025475 </v>
   <v>       0.91131067       0.85556064       0.54653205 </v>
   <v>       0.83824357       0.80777042       0.55634649 </v>
   <v>       0.78987191       0.82640401       0.58466883 </v>
   <v>       0.13933834       0.08307718       0.55246051 </v>
   <v>       0.18554347       0.05889989       0.57232717 </v>
   <v>       0.16245790       0.99514261       0.60955815 </v>
   <v>       0.57695066       0.48389169       0.49197002 </v>
   <v>       0.94830680       0.14288499       0.50546385 </v>
   <v>       0.82163545       0.38865260       0.37958857 </v>
   <v>       0.64793528       0.16266764       0.28409309 </v>
   <v>       0.53397627       0.16400054       0.40267771 </v>
   <v>       0.80028675       0.48992464       0.25998302 </v>
   <v>       0.82063390       0.10817202       0.56661492 </v>
   <v>       0.81025035       0.98969972       0.68385141 </v>
   <v>       0.58295513       0.12832368       0.51415138 </v>
   <v>       0.88079699       0.48676552       0.48036636 </v>
   <v>       0.95144245       0.82858034       0.52648768 </v>
   <v>       0.16800929       0.14833619       0.52636680 </v>
   <v>       0.60340216       0.45641802       0.38542499 </v>
   <v>       0.48734359       0.32667276       0.27731327 </v>
   <v>       0.80775476       0.73968682       0.53904186 </v>
   <v>       0.74784034       0.83864283       0.60617236 </v>
   <v>       0.25484141       0.09501918       0.55883222 </v>
   <v>       0.14454254       0.94368140       0.64019285 </v>
   <v>       0.51831060       0.42134083       0.49666180 </v>
  </varray>
 </structure>
 <calculation>
  <scstep>
   <time name="dav">  262.80  265.02</time>
   <time name="total">  262.97  265.20</time>
   <energy>
    <i name="alphaZ">     59.65411073 </i>
    <i name="ewald">  36351.21831660 </i>
    <i name="hartreedc"> -46834.82335089 </i>
    <i name="XCdc">   1147.61906265 </i>
    <i name="pawpsdc">  31662.49465969 </i>
    <i name="pawaedc"> -31724.41950711 </i>
    <i name="eentropy">     -0.00000000 </i>
    <i name="bandstr">  -4283.35909428 </i>
    <i name="atom">  12932.39779842 </i>
    <i name="e_fr_energy">   -689.21800418 </i>
    <i name="e_wo_entrp">   -689.21800418 </i>
    <i name="e_0_energy">   -689.21800418 </i>
   </energy>
  </scstep>
  <scstep>
   <time name="dav">  297.72  300.25</time>
   <time name="total">  297.74  300.27</time>
   <energy>
    <i name="e_fr_energy">   -690.24122778 </i>
    <i name="e_wo_entrp">   -690.24122778 </i>
    <i name="e_0_energy">   -690.24122778 </i>
   </energy>
  </scstep>
  <scstep>
   <time name="dav">  329.95  332.88</time>
   <time name="total">  329.97  332.90</time>
   <energy>
    <i name="e_fr_energy">   -690.27037530 </i>
    <i name="e_wo_entrp">   -690.27037530 </i>
    <i name="e_0_energy">   -690.27037530 </i>
   </energy>
  </scstep>
  <scstep>
   <time name="dav">  295.84  298.36</time>
   <time name="total">  295.86  298.38</time>
   <energy>
    <i name="e_fr_energy">   -690.27093255 </i>
    <i name="e_wo_entrp">   -690.27093255 </i>
    <i name="e_0_energy">   -690.27093255 </i>
   </energy>
  </scstep>
  <scstep>
   <time name="dav">  286.10  288.53</time>
   <time name="total">  286.12  288.55</time>
   <energy>
    <i name="e_fr_energy">   -690.27095567 </i>
    <i name="e_wo_entrp">   -690.27095567 </i>
    <i name="e_0_energy">   -690.27095567 </i>
   </energy>
  </scstep>
  <scstep>
   <time name="dav">  222.86  224.74</time>
   <time name="total">  222.88  224.76</time>
   <energy>
    <i name="alphaZ">     59.65411073 </i>
    <i name="ewald">  36351.21831660 </i>
    <i name="hartreedc"> -46834.82335089 </i>
    <i name="XCdc">   1147.61906265 </i>
    <i name="pawpsdc">  31662.49465969 </i>
    <i name="pawaedc"> -31724.41950711 </i>
    <i name="eentropy">     -0.00000000 </i>
    <i name="bandstr">  -4284.41204668 </i>
    <i name="atom">  12932.39779842 </i>
    <i name="e_fr_energy">   -690.27095658 </i>
    <i name="e_wo_entrp">   -690.27095658 </i>
    <i name="e_0_energy">   -690.27095658 </i>
   </energy>
  </scstep>
  <structure>
   <crystal>
    <varray name="basis" >
     <v>      22.00612530      -0.06796096       0.00000000 </v>
     <v>     -11.05189644      19.04727761       0.00000000 </v>
     <v>       0.00000000       0.00000000      20.00000000 </v>
    </varray>
    <i name="volume">   8368.11360668 </i>
    <varray name="rec_basis" >
     <v>       0.04552347       0.02641431       0.00000000 </v>
     <v>       0.00016243       0.05259519       0.00000000 </v>
     <v>       0.00000000       0.00000000       0.05000000 </v>
    </varray>
   </crystal>
   <varray name="positions" >
    <v>       0.94226172       0.22302880       0.45861903 </v>
    <v>       0.70854904       0.10202221       0.51306955 </v>
    <v>       0.05577754       0.13790533       0.55256957 </v>
    <v>       0.85644119       0.94519401       0.55147507 </v>
    <v>       0.71170195       0.28026839       0.41947123 </v>
    <v>       0.90468781       0.29713249       0.48724923 </v>
    <v>       0.91552940       0.42287845       0.52104614 </v>
    <v>       0.48720557       0.10104370       0.55871852 </v>
    <v>       0.90447475       0.63080801       0.48518167 </v>
    <v>       0.36831016       0.29861733       0.50244308 </v>
    <v>       0.95717266       0.74232723       0.49675979 </v>
    <v>       0.25694174       0.23740607       0.49413905 </v>
    <v>       0.71431419       0.45835009       0.40508223 </v>
    <v>       0.54113125       0.28082142       0.42628771 </v>
    <v>       0.04801515       0.93813660       0.55323896 </v>
    <v>       0.71041904       0.63486384       0.49286307 </v>
    <v>       0.36210892       0.09958160       0.51263896 </v>
    <v>       0.58688811       0.52234723       0.53119527 </v>
    <v>       0.95230091       0.04554780       0.55442234 </v>
    <v>       0.91357698       0.97177625       0.55450264 </v>
    <v>       0.02583751       0.08072524       0.55480087 </v>
    <v>       0.91597648       0.17889427       0.49334726 </v>
    <v>       0.84974832       0.15992944       0.52123321 </v>
    <v>       0.70101748       0.18650912       0.46539163 </v>
    <v>       0.73696082       0.15607705       0.49492820 </v>
    <v>       0.62368032       0.15335504       0.45966466 </v>
    <v>       0.59212880       0.15909886       0.39969433 </v>
    <v>       0.62221114       0.16176889       0.33545952 </v>
    <v>       0.81077109       0.19486955       0.49936785 </v>
    <v>       0.84492528       0.49621331       0.43119372 </v>
    <v>       0.82674221       0.45164416       0.37417130 </v>
    <v>       0.81157201       0.47142658       0.31085588 </v>
    <v>       0.91750839       0.08772533       0.54758287 </v>
    <v>       0.85510664       0.07394452       0.58140907 </v>
    <v>       0.82857299       0.02602240       0.63677869 </v>
    <v>       0.81208737       0.29719852       0.45188338 </v>
    <v>       0.73927997       0.25601419       0.44228810 </v>
    <v>       0.84782263       0.26606579       0.48011946 </v>
    <v>       0.84328316       0.37284342       0.43596924 </v>
    <v>       0.88406918       0.42799643       0.48158496 </v>
    <v>       0.50104254       0.15351282       0.46136129 </v>
    <v>       0.52030448       0.12403800       0.51459401 </v>
    <v>       0.94840658       0.93305764       0.55412431 </v>
    <v>       0.02245528       0.96938486       0.55547455 </v>
    <v>       0.06159358       0.04298399       0.55614443 </v>
    <v>       0.81401163       0.54121122       0.44276296 </v>
    <v>       0.84877172       0.60745735       0.47331702 </v>
    <v>       0.45848324       0.29788282       0.46257748 </v>
    <v>       0.39170867       0.26628548       0.49181416 </v>
    <v>       0.92155496       0.76072925       0.51210571 </v>
    <v>       0.23676686       0.18507224       0.51558713 </v>
    <v>       0.50295220       0.37378656       0.44808145 </v>
    <v>       0.54034167       0.39766298       0.38673999 </v>
    <v>       0.84785823       0.71513602       0.51457812 </v>
    <v>       0.28144294       0.15764359       0.52859443 </v>
    <v>       0.51266048       0.35921392       0.32586438 </v>
    <v>       0.81167994       0.64222804       0.48868870 </v>
    <v>       0.35581714       0.19402763       0.50689250 </v>
    <v>       0.48924754       0.25685128       0.44947601 </v>
    <v>       0.70336909       0.54172614       0.44779810 </v>
    <v>       0.74217626       0.51018306       0.42827850 </v>
    <v>       0.73841425       0.60794416       0.47793628 </v>
    <v>       0.45684319       0.18630774       0.46953578 </v>
    <v>       0.38988309       0.15490336       0.49824681 </v>
    <v>       0.62612307       0.49659923       0.44025475 </v>
    <v>       0.91131067       0.85556064       0.54653205 </v>
    <v>       0.83824357       0.80777042       0.55634649 </v>
    <v>       0.78987191       0.82640401       0.58466883 </v>
    <v>       0.13933834       0.08307718       0.55246051 </v>
    <v>       0.18554347       0.05889989       0.57232717 </v>
    <v>       0.16245790       0.99514261       0.60955815 </v>
    <v>       0.57695066       0.48389169       0.49197002 </v>
    <v>       0.94830680       0.14288499       0.50546385 </v>
    <v>       0.82163545       0.38865260       0.37958857 </v>
    <v>       0.64793528       0.16266764       0.28409309 </v>
    <v>       0.53397627       0.16400054       0.40267771 </v>
    <v>       0.80028675       0.48992464       0.25998302 </v>
    <v>       0.82063390       0.10817202       0.56661492 </v>
    <v>       0.81025035       0.98969972       0.68385141 </v>
    <v>       0.58295513       0.12832368       0.51415138 </v>
    <v>       0.88079699       0.48676552       0.48036636 </v>
    <v>       0.95144245       0.82858034       0.52648768 </v>
    <v>       0.16800929       0.14833619       0.52636680 </v>
    <v>       0.60340216       0.45641802       0.38542499 </v>
    <v>       0.48734359       0.32667276       0.27731327 </v>
    <v>       0.80775476       0.73968682       0.53904186 </v>
    <v>       0.74784034       0.83864283       0.60617236 </v>
    <v>       0.25484141       0.09501918       0.55883222 </v>
    <v>       0.14454254       0.94368140       0.64019285 </v>
    <v>       0.51831060       0.42134083       0.49666180 </v>
   </varray>
  </structure>
  <varray name="forces" >
   <v>       0.00129609      -0.00017663       0.00329248 </v>
   <v>      -0.00069940       0.00020926      -0.00115021 </v>
   <v>      -0.00038405      -0.00021440       0.00245993 </v>
   <v>      -0.00104028      -0.00027382      -0.00039169 </v>
   <v>       0.00035441      -0.00001910      -0.00254760 </v>
   <v>      -0.00040205       0.00092274       0.00043212 </v>
   <v>       0.00096599       0.00012753       0.00245734 </v>
   <v>      -0.00037918       0.00002777       0.00139461 </v>
   <v>      -0.00072590      -0.00108120      -0.00040889 </v>
   <v>      -0.00033269      -0.00047719      -0.00005648 </v>
   <v>       0.00150781      -0.00014791      -0.00025095 </v>
   <v>       0.00005475       0.00176569       0.00174473 </v>
   <v>      -0.00043974      -0.00053373      -0.00127200 </v>
   <v>      -0.00086998       0.00029279       0.00021526 </v>
   <v>      -0.00038384       0.00000691       0.00015084 </v>
   <v>      -0.00097195      -0.00012091      -0.00202355 </v>
   <v>       0.00028729      -0.00014428       0.00063539 </v>
   <v>       0.00023843      -0.00067568      -0.00124150 </v>
   <v>       0.00035397      -0.00073708       0.00125502 </v>
   <v>       0.00184208      -0.00075911       0.00090591 </v>
   <v>       0.00066612       0.00033214       0.00109010 </v>
   <v>       0.00328578       0.00181802      -0.00078300 </v>
   <v>       0.00140248       0.00102518       0.00038541 </v>
   <v>      -0.00021015       0.00069347      -0.00075828 </v>
   <v>       0.00017208       0.00066318      -0.00079482 </v>
   <v>      -0.00081885       0.00019916      -0.00079135 </v>
   <v>      -0.00209614      -0.00130418       0.00009974 </v>
   <v>       0.00078327      -0.00082914       0.00140163 </v>
   <v>       0.00026567      -0.00056094       0.00072115 </v>
   <v>      -0.00259384      -0.00013332      -0.00267814 </v>
   <v>       0.00435184      -0.00441020       0.00052721 </v>
   <v>      -0.00268110       0.00312609      -0.00611171 </v>
   <v>      -0.00063647      -0.00223916       0.00194962 </v>
   <v>       0.00339855      -0.00334494       0.00231781 </v>
   <v>       0.00062758       0.00008549      -0.00389865 </v>
   <v>      -0.00182430       0.00061467      -0.00195186 </v>
   <v>       0.00194136       0.00138150      -0.00082804 </v>
   <v>       0.00160448       0.00056087       0.00054065 </v>
   <v>       0.00272930       0.00034502       0.00108595 </v>
   <v>      -0.00531815       0.00355706      -0.00321700 </v>
   <v>       0.00136114      -0.00112279       0.00054899 </v>
   <v>       0.00120085       0.00163370      -0.00088922 </v>
   <v>      -0.00073523      -0.00006450       0.00055685 </v>
   <v>      -0.00014153       0.00006592       0.00019248 </v>
   <v>      -0.00115025      -0.00036610       0.00023730 </v>
   <v>       0.00010089      -0.00173963      -0.00106133 </v>
   <v>       0.00132600      -0.00192595      -0.00140425 </v>
   <v>       0.00051370      -0.00008053      -0.00153839 </v>
   <v>      -0.00238287       0.00000715       0.00039739 </v>
   <v>       0.00014483       0.00183548       0.00067125 </v>
   <v>      -0.00072366      -0.00131755       0.00152886 </v>
   <v>      -0.00097854       0.00130692      -0.00019012 </v>
   <v>      -0.00031684      -0.00124675       0.00220327 </v>
   <v>       0.00225575      -0.00020169      -0.00068153 </v>
   <v>      -0.00147606       0.00130039       0.00011591 </v>
   <v>      -0.00061896       0.00175293       0.00008679 </v>
   <v>      -0.00219721       0.00077803      -0.00148738 </v>
   <v>       0.00116337       0.00018464      -0.00016978 </v>
   <v>      -0.00189102       0.00059361       0.00098346 </v>
   <v>      -0.00022777      -0.00159608      -0.00057266 </v>
   <v>      -0.00000942       0.00041573      -0.00081174 </v>
   <v>      -0.00022306       0.00066576      -0.00131487 </v>
   <v>      -0.00068133       0.00085315       0.00040139 </v>
   <v>      -0.00073310       0.00000073       0.00082429 </v>
   <v>       0.00083005      -0.00107363       0.00191358 </v>
   <v>      -0.00007626       0.00083573       0.00035990 </v>
   <v>      -0.00001662      -0.00062993       0.00051838 </v>
   <v>       0.00085893      -0.00259341      -0.00068513 </v>
   <v>       0.00121369      -0.00046361       0.00110857 </v>
   <v>      -0.00129835       0.00174833       0.00037634 </v>
   <v>      -0.00071651       0.00016083      -0.00006138 </v>
   <v>       0.00086491       0.00198916       0.00133713 </v>
   <v>      -0.00046682       0.00274657      -0.00019522 </v>
   <v>      -0.00327627       0.00556819      -0.00368186 </v>
   <v>       0.00243520      -0.00040320      -0.00065171 </v>
   <v>       0.00252672      -0.00061704      -0.00026995 </v>
   <v>       0.00197172      -0.00171364       0.00453031 </v>
   <v>      -0.00239650       0.00169510       0.00003889 </v>
   <v>      -0.00249498      -0.00123027       0.00346829 </v>
   <v>      -0.00160905       0.00102918      -0.00069989 </v>
   <v>       0.00347418      -0.00378466       0.00273623 </v>
   <v>       0.00168299      -0.00330149      -0.00084517 </v>
   <v>      -0.00023291       0.00089338       0.00013018 </v>
   <v>       0.00128622       0.00005919      -0.00051703 </v>
   <v>      -0.00095379      -0.00013411       0.00011782 </v>
   <v>      -0.00062685      -0.00096717      -0.00053602 </v>
   <v>      -0.00020312      -0.00022512      -0.00063481 </v>
   <v>      -0.00110417      -0.00155620       0.00071788 </v>
   <v>       0.00036148       0.00003558       0.00042412 </v>
   <v>      -0.00093481       0.00062806      -0.00153357 </v>
  </varray>
  <varray name="stress" >
   <v>      -0.04126762      -0.01436028      -0.01781109 </v>
   <v>      -0.01436028      -0.09350683      -0.00242820 </v>
   <v>      -0.01781109      -0.00242820      -0.15721303 </v>
  </varray>
  <energy>
   <i name="e_fr_energy">   -692.37631194 </i>
   <i name="e_wo_entrp">   -692.37631194 </i>
   <i name="e_0_energy">     -0.00000000 </i>
  </energy>
  <time name="totalsc"> 1919.63 1936.47</time>
  <eigenvalues>
   <array>
    <dimension dim="1">band</dimension>
    <dimension dim="2">kpoint</dimension>
    <dimension dim="3">spin</dimension>
    <field>eigene</field>
    <field>occ</field>
    <set>
     <set comment="spin 1">
      <set comment="kpoint 1">
       <r>  -25.2409    1.0000 </r>
       <r>  -25.2045    1.0000 </r>
       <r>  -25.1522    1.0000 </r>
       <r>  -25.1137    1.0000 </r>
       <r>  -25.0840    1.0000 </r>
       <r>  -25.0568    1.0000 </r>
       <r>  -23.3108    1.0000 </r>
       <r>  -23.2769    1.0000 </r>
       <r>  -23.2638    1.0000 </r>
       <r>  -23.2208    1.0000 </r>
       <r>  -23.2134    1.0000 </r>
       <r>  -23.1890    1.0000 </r>
       <r>  -22.5045    1.0000 </r>
       <r>  -22.4520    1.0000 </r>
       <r>  -22.4075    1.0000 </r>
       <r>  -22.3773    1.0000 </r>
       <r>  -22.3231    1.0000 </r>
       <r>  -22.2800    1.0000 </r>
       <r>  -21.9993    1.0000 </r>
       <r>  -21.9984    1.0000 </r>
       <r>  -21.9888    1.0000 </r>
       <r>  -21.8687    1.0000 </r>
       <r>  -20.8029    1.0000 </r>
       <r>  -20.7911    1.0000 </r>
       <r>  -20.7747    1.0000 </r>
       <r>  -20.3656    1.0000 </r>
       <r>  -20.3272    1.0000 </r>
       <r>  -20.3162    1.0000 </r>
       <r>  -19.6923    1.0000 </r>
       <r>  -19.6819    1.0000 </r>
       <r>  -19.1175    1.0000 </r>
       <r>  -19.1023    1.0000 </r>
       <r>  -19.0793    1.0000 </r>
       <r>  -18.6189    1.0000 </r>
       <r>  -18.4649    1.0000 </r>
       <r>  -18.4295    1.0000 </r>
       <r>  -17.6016    1.0000 </r>
       <r>  -17.5368    1.0000 </r>
       <r>  -17.4920    1.0000 </r>
       <r>  -17.4170    1.0000 </r>
       <r>  -17.3604    1.0000 </r>
       <r>  -17.2571    1.0000 </r>
       <r>  -17.0272    1.0000 </r>
       <r>  -16.8805    1.0000 </r>
       <r>  -16.8231    1.0000 </r>
       <r>  -16.8065    1.0000 </r>
       <r>  -16.7641    1.0000 </r>
       <r>  -16.6945    1.0000 </r>
       <r>  -15.7238    1.0000 </r>
       <r>  -15.4785    1.0000 </r>
       <r>  -15.4522    1.0000 </r>
       <r>  -15.3111    1.0000 </r>
       <r>  -15.1535    1.0000 </r>
       <r>  -15.0568    1.0000 </r>
       <r>  -15.0192    1.0000 </r>
       <r>  -14.8334    1.0000 </r>
       <r>  -14.3629    1.0000 </r>
       <r>  -14.3055    1.0000 </r>
       <r>  -14.1935    1.0000 </r>
       <r>  -13.9471    1.0000 </r>
       <r>  -13.8222    1.0000 </r>
       <r>  -13.6565    1.0000 </r>
       <r>  -13.6241    1.0000 </r>
       <r>  -13.5710    1.0000 </r>
       <r>  -13.5076    1.0000 </r>
       <r>  -13.4327    1.0000 </r>
       <r>  -13.3322    1.0000 </r>
       <r>  -13.3077    1.0000 </r>
       <r>  -13.0964    1.0000 </r>
       <r>  -13.0351    1.0000 </r>
       <r>  -12.9901    1.0000 </r>
       <r>  -12.9731    1.0000 </r>
       <r>  -12.4122    1.0000 </r>
       <r>  -12.3601    1.0000 </r>
       <r>  -12.2906    1.0000 </r>
       <r>  -12.1794    1.0000 </r>
       <r>  -12.1095    1.0000 </r>
       <r>  -12.0304    1.0000 </r>
       <r>  -11.8840    1.0000 </r>
       <r>  -11.8367    1.0000 </r>
       <r>  -11.6943    1.0000 </r>
       <r>  -11.6758    1.0000 </r>
       <r>  -11.6282    1.0000 </r>
       <r>  -11.5136    1.0000 </r>
       <r>  -11.5069    1.0000 </r>
       <r>  -11.4225    1.0000 </r>
       <r>  -11.3188    1.0000 </r>
       <r>  -11.2932    1.0000 </r>
       <r>  -11.0182    1.0000 </r>
       <r>  -10.9770    1.0000 </r>
       <r>  -10.9510    1.0000 </r>
       <r>  -10.8861    1.0000 </r>
       <r>  -10.8466    1.0000 </r>
       <r>  -10.8119    1.0000 </r>
       <r>  -10.5890    1.0000 </r>
       <r>  -10.2478    1.0000 </r>
       <r>  -10.2230    1.0000 </r>
       <r>  -10.1283    1.0000 </r>
       <r>  -10.1128    1.0000 </r>
       <r>  -10.0549    1.0000 </r>
       <r>   -9.9820    1.0000 </r>
       <r>   -9.9190    1.0000 </r>
       <r>   -9.8726    1.0000 </r>
       <r>   -9.6292    1.0000 </r>
       <r>   -9.3703    1.0000 </r>
       <r>   -9.2559    1.0000 </r>
       <r>   -9.2399    1.0000 </r>
       <r>   -9.2198    1.0000 </r>
       <r>   -9.1439    1.0000 </r>
       <r>   -9.1115    1.0000 </r>
       <r>   -9.0831    1.0000 </r>
       <r>   -9.0666    1.0000 </r>
       <r>   -8.9974    1.0000 </r>
       <r>   -8.9910    1.0000 </r>
       <r>   -8.9551    1.0000 </r>
       <r>   -8.9502    1.0000 </r>
       <r>   -8.8698    1.0000 </r>
       <r>   -8.8485    1.0000 </r>
       <r>   -8.7868    1.0000 </r>
       <r>   -8.6776    1.0000 </r>
       <r>   -8.4959    1.0000 </r>
       <r>   -8.4624    1.0000 </r>
       <r>   -8.4439    1.0000 </r>
       <r>   -8.3696    1.0000 </r>
       <r>   -8.3496    1.0000 </r>
       <r>   -8.3230    1.0000 </r>
       <r>   -8.2938    1.0000 </r>
       <r>   -8.2531    1.0000 </r>
       <r>   -8.2432    1.0000 </r>
       <r>   -8.2111    1.0000 </r>
       <r>   -8.1814    1.0000 </r>
       <r>   -8.1379    1.0000 </r>
       <r>   -8.1150    1.0000 </r>
       <r>   -8.0908    1.0000 </r>
       <r>   -8.0747    1.0000 </r>
       <r>   -8.0456    1.0000 </r>
       <r>   -7.6164    1.0000 </r>
       <r>   -7.6061    1.0000 </r>
       <r>   -7.5753    1.0000 </r>
       <r>   -7.5361    1.0000 </r>
       <r>   -7.5042    1.0000 </r>
       <r>   -7.4704    1.0000 </r>
       <r>   -7.4235    1.0000 </r>
       <r>   -7.4142    1.0000 </r>
       <r>   -7.3153    1.0000 </r>
       <r>   -7.2197    1.0000 </r>
       <r>   -7.1806    1.0000 </r>
       <r>   -7.1528    1.0000 </r>
       <r>   -6.8823    1.0000 </r>
       <r>   -6.8466    1.0000 </r>
       <r>   -6.4911    1.0000 </r>
       <r>   -6.4214    1.0000 </r>
       <r>   -6.3698    1.0000 </r>
       <r>   -6.3050    1.0000 </r>
       <r>   -6.2768    1.0000 </r>
       <r>   -6.2621    1.0000 </r>
       <r>   -6.1775    1.0000 </r>
       <r>   -6.1091    1.0000 </r>
       <r>   -6.1065    1.0000 </r>
       <r>   -6.0623    1.0000 </r>
       <r>   -5.9647    1.0000 </r>
       <r>   -5.9144    1.0000 </r>
       <r>   -3.2179    0.0000 </r>
       <r>   -3.1808    0.0000 </r>
       <r>   -3.0951    0.0000 </r>
       <r>   -3.0933    0.0000 </r>
       <r>   -3.0715    0.0000 </r>
       <r>   -3.0064    0.0000 </r>
       <r>   -2.9867    0.0000 </r>
       <r>   -2.9318    0.0000 </r>
       <r>   -2.8826    0.0000 </r>
       <r>   -2.8487    0.0000 </r>
       <r>   -2.8218    0.0000 </r>
       <r>   -2.6648    0.0000 </r>
       <r>   -1.7959    0.0000 </r>
       <r>   -1.7645    0.0000 </r>
       <r>   -1.7171    0.0000 </r>
       <r>   -1.3571    0.0000 </r>
       <r>   -1.2055    0.0000 </r>
       <r>   -1.1093    0.0000 </r>
       <r>   -0.7004    0.0000 </r>
       <r>   -0.5940    0.0000 </r>
       <r>   -0.4890    0.0000 </r>
       <r>   -0.4204    0.0000 </r>
       <r>   -0.3664    0.0000 </r>
       <r>   -0.3104    0.0000 </r>
       <r>   -0.2931    0.0000 </r>
       <r>   -0.2620    0.0000 </r>
       <r>   -0.1823    0.0000 </r>
       <r>   -0.1479    0.0000 </r>
       <r>   -0.1052    0.0000 </r>
       <r>   -0.0564    0.0000 </r>
       <r>    0.0022    0.0000 </r>
       <r>    0.0449    0.0000 </r>
       <r>    0.1294    0.0000 </r>
       <r>    0.1537    0.0000 </r>
       <r>    0.1830    0.0000 </r>
       <r>    0.2943    0.0000 </r>
       <r>    0.3821    0.0000 </r>
       <r>    0.4222    0.0000 </r>
       <r>    0.4615    0.0000 </r>
       <r>    0.5199    0.0000 </r>
       <r>    0.5792    0.0000 </r>
       <r>    0.6083    0.0000 </r>
       <r>    0.6581    0.0000 </r>
       <r>    0.7289    0.0000 </r>
       <r>    0.7737    0.0000 </r>
       <r>    0.7992    0.0000 </r>
      </set>
      <set comment="kpoint 2">
       <r>  -25.2409    1.0000 </r>
       <r>  -25.2045    1.0000 </r>
       <r>  -25.1522    1.0000 </r>
       <r>  -25.1137    1.0000 </r>
       <r>  -25.0840    1.0000 </r>
       <r>  -25.0568    1.0000 </r>
       <r>  -23.3108    1.0000 </r>
       <r>  -23.2769    1.0000 </r>
       <r>  -23.2638    1.0000 </r>
       <r>  -23.2208    1.0000 </r>
       <r>  -23.2134    1.0000 </r>
       <r>  -23.1890    1.0000 </r>
       <r>  -22.5045    1.0000 </r>
       <r>  -22.4520    1.0000 </r>
       <r>  -22.4074    1.0000 </r>
       <r>  -22.3773    1.0000 </r>
       <r>  -22.3231    1.0000 </r>
       <r>  -22.2800    1.0000 </r>
       <r>  -21.9993    1.0000 </r>
       <r>  -21.9984    1.0000 </r>
       <r>  -21.9888    1.0000 </r>
       <r>  -21.8687    1.0000 </r>
       <r>  -20.8028    1.0000 </r>
       <r>  -20.7911    1.0000 </r>
       <r>  -20.7745    1.0000 </r>
       <r>  -20.3714    1.0000 </r>
       <r>  -20.3271    1.0000 </r>
       <r>  -20.3104    1.0000 </r>
       <r>  -19.6923    1.0000 </r>
       <r>  -19.6819    1.0000 </r>
       <r>  -19.1269    1.0000 </r>
       <r>  -19.1038    1.0000 </r>
       <r>  -19.0682    1.0000 </r>
       <r>  -18.6189    1.0000 </r>
       <r>  -18.4652    1.0000 </r>
       <r>  -18.4299    1.0000 </r>
       <r>  -17.6015    1.0000 </r>
       <r>  -17.5367    1.0000 </r>
       <r>  -17.4920    1.0000 </r>
       <r>  -17.4171    1.0000 </r>
       <r>  -17.3602    1.0000 </r>
       <r>  -17.2571    1.0000 </r>
       <r>  -17.0271    1.0000 </r>
       <r>  -16.8807    1.0000 </r>
       <r>  -16.8231    1.0000 </r>
       <r>  -16.8070    1.0000 </r>
       <r>  -16.7641    1.0000 </r>
       <r>  -16.6940    1.0000 </r>
       <r>  -15.7238    1.0000 </r>
       <r>  -15.4793    1.0000 </r>
       <r>  -15.4512    1.0000 </r>
       <r>  -15.3110    1.0000 </r>
       <r>  -15.1533    1.0000 </r>
       <r>  -15.0568    1.0000 </r>
       <r>  -15.0200    1.0000 </r>
       <r>  -14.8330    1.0000 </r>
       <r>  -14.3629    1.0000 </r>
       <r>  -14.3055    1.0000 </r>
       <r>  -14.1934    1.0000 </r>
       <r>  -13.9470    1.0000 </r>
       <r>  -13.8222    1.0000 </r>
       <r>  -13.6568    1.0000 </r>
       <r>  -13.6237    1.0000 </r>
       <r>  -13.5714    1.0000 </r>
       <r>  -13.5075    1.0000 </r>
       <r>  -13.4323    1.0000 </r>
       <r>  -13.3325    1.0000 </r>
       <r>  -13.3074    1.0000 </r>
       <r>  -13.0969    1.0000 </r>
       <r>  -13.0349    1.0000 </r>
       <r>  -12.9901    1.0000 </r>
       <r>  -12.9730    1.0000 </r>
       <r>  -12.4122    1.0000 </r>
       <r>  -12.3601    1.0000 </r>
       <r>  -12.2907    1.0000 </r>
       <r>  -12.1795    1.0000 </r>
       <r>  -12.1094    1.0000 </r>
       <r>  -12.0303    1.0000 </r>
       <r>  -11.8840    1.0000 </r>
       <r>  -11.8367    1.0000 </r>
       <r>  -11.6945    1.0000 </r>
       <r>  -11.6755    1.0000 </r>
       <r>  -11.6282    1.0000 </r>
       <r>  -11.5149    1.0000 </r>
       <r>  -11.5064    1.0000 </r>
       <r>  -11.4215    1.0000 </r>
       <r>  -11.3185    1.0000 </r>
       <r>  -11.2929    1.0000 </r>
       <r>  -11.0186    1.0000 </r>
       <r>  -10.9773    1.0000 </r>
       <r>  -10.9511    1.0000 </r>
       <r>  -10.8862    1.0000 </r>
       <r>  -10.8469    1.0000 </r>
       <r>  -10.8121    1.0000 </r>
       <r>  -10.5880    1.0000 </r>
       <r>  -10.2478    1.0000 </r>
       <r>  -10.2233    1.0000 </r>
       <r>  -10.1284    1.0000 </r>
       <r>  -10.1127    1.0000 </r>
       <r>  -10.0549    1.0000 </r>
       <r>   -9.9821    1.0000 </r>
       <r>   -9.9192    1.0000 </r>
       <r>   -9.8718    1.0000 </r>
       <r>   -9.6294    1.0000 </r>
       <r>   -9.3703    1.0000 </r>
       <r>   -9.2559    1.0000 </r>
       <r>   -9.2399    1.0000 </r>
       <r>   -9.2198    1.0000 </r>
       <r>   -9.1439    1.0000 </r>
       <r>   -9.1115    1.0000 </r>
       <r>   -9.0831    1.0000 </r>
       <r>   -9.0666    1.0000 </r>
       <r>   -8.9974    1.0000 </r>
       <r>   -8.9911    1.0000 </r>
       <r>   -8.9553    1.0000 </r>
       <r>   -8.9500    1.0000 </r>
       <r>   -8.8699    1.0000 </r>
       <r>   -8.8486    1.0000 </r>
       <r>   -8.7868    1.0000 </r>
       <r>   -8.6771    1.0000 </r>
       <r>   -8.4959    1.0000 </r>
       <r>   -8.4624    1.0000 </r>
       <r>   -8.4440    1.0000 </r>
       <r>   -8.3696    1.0000 </r>
       <r>   -8.3496    1.0000 </r>
       <r>   -8.3233    1.0000 </r>
       <r>   -8.2943    1.0000 </r>
       <r>   -8.2530    1.0000 </r>
       <r>   -8.2432    1.0000 </r>
       <r>   -8.2108    1.0000 </r>
       <r>   -8.1812    1.0000 </r>
       <r>   -8.1379    1.0000 </r>
       <r>   -8.1149    1.0000 </r>
       <r>   -8.0908    1.0000 </r>
       <r>   -8.0747    1.0000 </r>
       <r>   -8.0456    1.0000 </r>
       <r>   -7.6164    1.0000 </r>
       <r>   -7.6062    1.0000 </r>
       <r>   -7.5752    1.0000 </r>
       <r>   -7.5362    1.0000 </r>
       <r>   -7.5043    1.0000 </r>
       <r>   -7.4703    1.0000 </r>
       <r>   -7.4235    1.0000 </r>
       <r>   -7.4141    1.0000 </r>
       <r>   -7.3153    1.0000 </r>
       <r>   -7.2205    1.0000 </r>
       <r>   -7.1819    1.0000 </r>
       <r>   -7.1507    1.0000 </r>
       <r>   -6.8823    1.0000 </r>
       <r>   -6.8466    1.0000 </r>
       <r>   -6.4916    1.0000 </r>
       <r>   -6.4214    1.0000 </r>
       <r>   -6.3700    1.0000 </r>
       <r>   -6.3054    1.0000 </r>
       <r>   -6.2768    1.0000 </r>
       <r>   -6.2611    1.0000 </r>
       <r>   -6.1776    1.0000 </r>
       <r>   -6.1099    1.0000 </r>
       <r>   -6.1057    1.0000 </r>
       <r>   -6.0623    1.0000 </r>
       <r>   -5.9649    1.0000 </r>
       <r>   -5.9144    1.0000 </r>
       <r>   -3.2179    0.0000 </r>
       <r>   -3.1809    0.0000 </r>
       <r>   -3.0951    0.0000 </r>
       <r>   -3.0933    0.0000 </r>
       <r>   -3.0714    0.0000 </r>
       <r>   -3.0064    0.0000 </r>
       <r>   -2.9866    0.0000 </r>
       <r>   -2.9318    0.0000 </r>
       <r>   -2.8826    0.0000 </r>
       <r>   -2.8487    0.0000 </r>
       <r>   -2.8218    0.0000 </r>
       <r>   -2.6651    0.0000 </r>
       <r>   -1.7958    0.0000 </r>
       <r>   -1.7645    0.0000 </r>
       <r>   -1.7168    0.0000 </r>
       <r>   -1.3576    0.0000 </r>
       <r>   -1.2053    0.0000 </r>
       <r>   -1.1092    0.0000 </r>
       <r>   -0.7006    0.0000 </r>
       <r>   -0.5939    0.0000 </r>
       <r>   -0.4888    0.0000 </r>
       <r>   -0.4204    0.0000 </r>
       <r>   -0.3664    0.0000 </r>
       <r>   -0.3105    0.0000 </r>
       <r>   -0.2932    0.0000 </r>
       <r>   -0.2621    0.0000 </r>
       <r>   -0.1825    0.0000 </r>
       <r>   -0.1480    0.0000 </r>
       <r>   -0.1052    0.0000 </r>
       <r>   -0.0558    0.0000 </r>
       <r>    0.0023    0.0000 </r>
       <r>    0.0448    0.0000 </r>
       <r>    0.1293    0.0000 </r>
       <r>    0.1537    0.0000 </r>
       <r>    0.1835    0.0000 </r>
       <r>    0.2945    0.0000 </r>
       <r>    0.3821    0.0000 </r>
       <r>    0.4222    0.0000 </r>
       <r>    0.4615    0.0000 </r>
       <r>    0.5198    0.0000 </r>
       <r>    0.5781    0.0000 </r>
       <r>    0.6078    0.0000 </r>
       <r>    0.6583    0.0000 </r>
       <r>    0.7291    0.0000 </r>
       <r>    0.7734    0.0000 </r>
       <r>    0.7988    0.0000 </r>
      </set>
      <set comment="kpoint 3">
       <r>  -25.2409    1.0000 </r>
       <r>  -25.2045    1.0000 </r>
       <r>  -25.1522    1.0000 </r>
       <r>  -25.1137    1.0000 </r>
       <r>  -25.0840    1.0000 </r>
       <r>  -25.0568    1.0000 </r>
       <r>  -23.3108    1.0000 </r>
       <r>  -23.2770    1.0000 </r>
       <r>  -23.2637    1.0000 </r>
       <r>  -23.2207    1.0000 </r>
       <r>  -23.2134    1.0000 </r>
       <r>  -23.1891    1.0000 </r>
       <r>  -22.5045    1.0000 </r>
       <r>  -22.4521    1.0000 </r>
       <r>  -22.4073    1.0000 </r>
       <r>  -22.3773    1.0000 </r>
       <r>  -22.3231    1.0000 </r>
       <r>  -22.2801    1.0000 </r>
       <r>  -21.9994    1.0000 </r>
       <r>  -21.9983    1.0000 </r>
       <r>  -21.9888    1.0000 </r>
       <r>  -21.8687    1.0000 </r>
       <r>  -20.8026    1.0000 </r>
       <r>  -20.7909    1.0000 </r>
       <r>  -20.7738    1.0000 </r>
       <r>  -20.3843    1.0000 </r>
       <r>  -20.3271    1.0000 </r>
       <r>  -20.2976    1.0000 </r>
       <r>  -19.6924    1.0000 </r>
       <r>  -19.6819    1.0000 </r>
       <r>  -19.1454    1.0000 </r>
       <r>  -19.1044    1.0000 </r>
       <r>  -19.0483    1.0000 </r>
       <r>  -18.6189    1.0000 </r>
       <r>  -18.4660    1.0000 </r>
       <r>  -18.4311    1.0000 </r>
       <r>  -17.6012    1.0000 </r>
       <r>  -17.5364    1.0000 </r>
       <r>  -17.4921    1.0000 </r>
       <r>  -17.4176    1.0000 </r>
       <r>  -17.3596    1.0000 </r>
       <r>  -17.2572    1.0000 </r>
       <r>  -17.0268    1.0000 </r>
       <r>  -16.8813    1.0000 </r>
       <r>  -16.8232    1.0000 </r>
       <r>  -16.8084    1.0000 </r>
       <r>  -16.7642    1.0000 </r>
       <r>  -16.6924    1.0000 </r>
       <r>  -15.7238    1.0000 </r>
       <r>  -15.4816    1.0000 </r>
       <r>  -15.4484    1.0000 </r>
       <r>  -15.3109    1.0000 </r>
       <r>  -15.1528    1.0000 </r>
       <r>  -15.0570    1.0000 </r>
       <r>  -15.0223    1.0000 </r>
       <r>  -14.8319    1.0000 </r>
       <r>  -14.3630    1.0000 </r>
       <r>  -14.3056    1.0000 </r>
       <r>  -14.1932    1.0000 </r>
       <r>  -13.9467    1.0000 </r>
       <r>  -13.8223    1.0000 </r>
       <r>  -13.6578    1.0000 </r>
       <r>  -13.6226    1.0000 </r>
       <r>  -13.5727    1.0000 </r>
       <r>  -13.5069    1.0000 </r>
       <r>  -13.4312    1.0000 </r>
       <r>  -13.3333    1.0000 </r>
       <r>  -13.3065    1.0000 </r>
       <r>  -13.0983    1.0000 </r>
       <r>  -13.0343    1.0000 </r>
       <r>  -12.9901    1.0000 </r>
       <r>  -12.9730    1.0000 </r>
       <r>  -12.4119    1.0000 </r>
       <r>  -12.3601    1.0000 </r>
       <r>  -12.2912    1.0000 </r>
       <r>  -12.1799    1.0000 </r>
       <r>  -12.1091    1.0000 </r>
       <r>  -12.0302    1.0000 </r>
       <r>  -11.8842    1.0000 </r>
       <r>  -11.8368    1.0000 </r>
[...]
       <r>   -24.3466     0.0000    12.0000 </r>
       <r>   -24.2511     0.0000    12.0000 </r>
       <r>   -24.1555     0.0000    12.0000 </r>
       <r>   -24.0600     0.0000    12.0000 </r>
       <r>   -23.9645     0.0000    12.0000 </r>
       <r>   -23.8690     0.0000    12.0000 </r>
       <r>   -23.7735     0.0000    12.0000 </r>
       <r>   -23.6780     0.0000    12.0000 </r>
       <r>   -23.5825     0.0000    12.0000 </r>
       <r>   -23.4870     0.0000    12.0000 </r>
       <r>   -23.3915     0.0000    12.0000 </r>
       <r>   -23.2960    21.0249    14.0080 </r>
       <r>   -23.2005    74.0289    22.0957 </r>
       <r>   -23.1050     0.0000    24.0000 </r>
       <r>   -23.0094     0.0000    24.0000 </r>
       <r>   -22.9139     0.0000    24.0000 </r>
       <r>   -22.8184     0.0000    24.0000 </r>
       <r>   -22.7229     0.0000    24.0000 </r>
       <r>   -22.6274     0.0000    24.0000 </r>
       <r>   -22.5319     0.0017    24.0002 </r>
       <r>   -22.4364    41.5518    27.9687 </r>
       <r>   -22.3409    41.9889    32.0103 </r>
       <r>   -22.2454    41.7736    36.0000 </r>
       <r>   -22.1499     0.0000    36.0000 </r>
       <r>   -22.0544     0.0000    36.0000 </r>
       <r>   -21.9589    62.8215    42.0000 </r>
       <r>   -21.8634    16.4688    43.5729 </r>
       <r>   -21.7678     0.0000    44.0000 </r>
       <r>   -21.6723     0.0000    44.0000 </r>
       <r>   -21.5768     0.0000    44.0000 </r>
       <r>   -21.4813     0.0000    44.0000 </r>
       <r>   -21.3858     0.0000    44.0000 </r>
       <r>   -21.2903     0.0000    44.0000 </r>
       <r>   -21.1948     0.0000    44.0000 </r>
       <r>   -21.0993     0.0000    44.0000 </r>
       <r>   -21.0038     0.0000    44.0000 </r>
       <r>   -20.9083     0.0000    44.0000 </r>
       <r>   -20.8128     0.5702    44.0545 </r>
       <r>   -20.7173    36.5366    48.7278 </r>
       <r>   -20.6217    15.4556    50.6102 </r>
       <r>   -20.5262     5.9397    51.6183 </r>
       <r>   -20.4307     1.6094    51.8204 </r>
       <r>   -20.3352     2.2842    52.0848 </r>
       <r>   -20.2397     7.0377    54.2098 </r>
       <r>   -20.1442     2.2083    54.4445 </r>
       <r>   -20.0487    15.7030    56.0000 </r>
       <r>   -19.9532     0.0000    56.0000 </r>
       <r>   -19.8577     0.0000    56.0000 </r>
       <r>   -19.7622     0.0000    56.0000 </r>
       <r>   -19.6667    41.3630    59.9505 </r>
       <r>   -19.5712     0.0000    60.0000 </r>
       <r>   -19.4756     0.0000    60.0000 </r>
       <r>   -19.3801    10.5979    61.0122 </r>
       <r>   -19.2846     2.0834    61.6824 </r>
       <r>   -19.1891     1.5647    61.8497 </r>
       <r>   -19.0936     9.8146    62.8041 </r>
       <r>   -18.9981     1.3800    64.1652 </r>
       <r>   -18.9026     1.3110    64.3087 </r>
       <r>   -18.8071     1.3970    64.4668 </r>
       <r>   -18.7116    10.7157    65.5235 </r>
       <r>   -18.6161    20.7283    67.7137 </r>
       <r>   -18.5206    13.8343    69.6231 </r>
       <r>   -18.4251    23.8159    71.9580 </r>
       <r>   -18.3296     0.0000    72.0000 </r>
       <r>   -18.2340     0.0000    72.0000 </r>
       <r>   -18.1385     0.0000    72.0000 </r>
       <r>   -18.0430     0.0000    72.0000 </r>
       <r>   -17.9475     0.0000    72.0000 </r>
       <r>   -17.8520     0.0000    72.0000 </r>
       <r>   -17.7565     0.0000    72.0000 </r>
       <r>   -17.6610     0.0000    72.0000 </r>
       <r>   -17.5655    17.2763    73.6500 </r>
       <r>   -17.4700    42.7119    77.9969 </r>
       <r>   -17.3745    20.9794    80.0037 </r>
       <r>   -17.2790    22.0239    82.2378 </r>
       <r>   -17.1835    13.5683    84.0000 </r>
       <r>   -17.0879     0.0000    84.0000 </r>
       <r>   -16.9924    13.9301    85.3304 </r>
       <r>   -16.8969    17.4139    87.6632 </r>
       <r>   -16.8014    31.4259    90.9899 </r>
       <r>   -16.7059    26.0558    94.0055 </r>
       <r>   -16.6104    19.7125    96.0000 </r>
       <r>   -16.5149     0.0000    96.0000 </r>
       <r>   -16.4194     0.0000    96.0000 </r>
       <r>   -16.3239     0.0000    96.0000 </r>
       <r>   -16.2284     0.0000    96.0000 </r>
       <r>   -16.1329     0.0000    96.0000 </r>
       <r>   -16.0374     0.0000    96.0000 </r>
       <r>   -15.9419     0.0000    96.0000 </r>
       <r>   -15.8463     0.0000    96.0000 </r>
       <r>   -15.7508     0.2157    96.0206 </r>
       <r>   -15.6553    17.2602    98.0000 </r>
       <r>   -15.5598     0.0000    98.0000 </r>
       <r>   -15.4643    20.9270    99.9987 </r>
       <r>   -15.3688    20.0426   101.9980 </r>
       <r>   -15.2733    13.6629   103.3054 </r>
       <r>   -15.1778     9.3327   104.6755 </r>
       <r>   -15.0823    24.1637   107.6919 </r>
       <r>   -14.9868    22.0413   109.9897 </r>
       <r>   -14.8913     0.0000   110.0000 </r>
       <r>   -14.7958    16.5736   111.5829 </r>
       <r>   -14.7002     0.0000   112.0000 </r>
       <r>   -14.6047     0.0000   112.0000 </r>
       <r>   -14.5092     0.0000   112.0000 </r>
       <r>   -14.4137     0.0000   112.0000 </r>
       <r>   -14.3182    30.5302   114.9159 </r>
       <r>   -14.2227     0.0000   116.0000 </r>
       <r>   -14.1272    20.9406   118.0000 </r>
       <r>   -14.0317     0.0000   118.0000 </r>
       <r>   -13.9362     9.8069   118.9366 </r>
       <r>   -13.8407     0.0401   120.0038 </r>
       <r>   -13.7452    20.9009   122.0000 </r>
       <r>   -13.6497    22.8422   124.1817 </r>
       <r>   -13.5542    22.3348   127.2186 </r>
       <r>   -13.4586    18.5885   129.7754 </r>
       <r>   -13.3631    19.0710   132.0891 </r>
       <r>   -13.2676    31.9160   135.5657 </r>
       <r>   -13.1721     0.9985   136.0954 </r>
       <r>   -13.0766    16.8927   137.9998 </r>
       <r>   -12.9811    42.3275   142.0426 </r>
       <r>   -12.8856     0.0000   144.0000 </r>
       <r>   -12.7901     0.0000   144.0000 </r>
       <r>   -12.6946     0.0000   144.0000 </r>
       <r>   -12.5991     0.0000   144.0000 </r>
       <r>   -12.5036     0.0000   144.0000 </r>
       <r>   -12.4081     4.3401   144.4145 </r>
       <r>   -12.3125    38.4894   149.3104 </r>
       <r>   -12.2170     2.0893   150.0002 </r>
       <r>   -12.1215    21.0894   152.0144 </r>
       <r>   -12.0260    27.3297   155.0307 </r>
       <r>   -11.9305     0.0000   156.0000 </r>
       <r>   -11.8350    34.9054   159.3337 </r>
       <r>   -11.7395     0.0030   160.0003 </r>
       <r>   -11.6440    38.0883   163.6380 </r>
       <r>   -11.5485    33.0078   167.2927 </r>
       <r>   -11.4530    27.0450   170.0000 </r>
       <r>   -11.3575     7.7159   170.7369 </r>
       <r>   -11.2620    31.5542   174.0139 </r>
       <r>   -11.1664    14.8358   176.0014 </r>
       <r>   -11.0709    16.6004   177.5868 </r>
       <r>   -10.9754    23.9027   180.2341 </r>
       <r>   -10.8799    30.2347   183.8783 </r>
       <r>   -10.7844    38.4590   187.9902 </r>
       <r>   -10.6889     0.0000   188.0000 </r>
       <r>   -10.5934     0.2513   188.0240 </r>
       <r>   -10.4979     5.7534   188.6996 </r>
       <r>   -10.4024    12.5611   190.0000 </r>
       <r>   -10.3069     5.2032   190.4969 </r>
       <r>   -10.2114    27.7210   193.7980 </r>
       <r>   -10.1159    23.0586   196.2023 </r>
       <r>   -10.0204    29.6831   200.3050 </r>
       <r>    -9.9248    11.5876   202.3580 </r>
       <r>    -9.8293    12.4684   204.3784 </r>
       <r>    -9.7338    16.2265   206.0001 </r>
       <r>    -9.6383    18.9816   207.8130 </r>
       <r>    -9.5428     0.0000   208.0000 </r>
       <r>    -9.4473     0.0000   208.0000 </r>
       <r>    -9.3518    20.9074   209.9968 </r>
       <r>    -9.2563    13.7538   211.3136 </r>
       <r>    -9.1608    43.0340   216.1258 </r>
       <r>    -9.0653    53.2837   222.8416 </r>
       <r>    -8.9698    40.6888   227.8861 </r>
       <r>    -8.8743    38.1538   233.6448 </r>
       <r>    -8.7787    10.2724   236.3853 </r>
       <r>    -8.6832    14.7018   238.0378 </r>
       <r>    -8.5877    15.6029   239.7572 </r>
       <r>    -8.4922    25.0193   242.3895 </r>
       <r>    -8.3967    38.4755   247.0590 </r>
       <r>    -8.3012    62.2922   253.5998 </r>
       <r>    -8.2057    45.0502   258.3027 </r>
       <r>    -8.1102    54.5290   265.2080 </r>
       <r>    -8.0147    62.7762   272.0000 </r>
       <r>    -7.9192     0.0000   272.0000 </r>
       <r>    -7.8237     0.0000   272.0000 </r>
       <r>    -7.7282     0.0000   272.0000 </r>
       <r>    -7.6327     0.3508   272.0335 </r>
       <r>    -7.5371    55.7909   278.5034 </r>
       <r>    -7.4416    43.8826   284.1912 </r>
       <r>    -7.3461    27.9755   288.1092 </r>
       <r>    -7.2506    29.2959   291.7660 </r>
       <r>    -7.1551    21.7822   293.9305 </r>
       <r>    -7.0596     3.4151   294.4430 </r>
       <r>    -6.9641    15.1723   296.0000 </r>
       <r>    -6.8686    20.7532   297.9821 </r>
       <r>    -6.7731    20.9355   300.0000 </r>
       <r>    -6.6776     0.0000   300.0000 </r>
       <r>    -6.5821     0.0097   300.0009 </r>
       <r>    -6.4866    20.5706   301.9656 </r>
       <r>    -6.3910    28.2889   304.7018 </r>
       <r>    -6.2955    21.9495   307.9304 </r>
       <r>    -6.2000    23.7613   311.5724 </r>
       <r>    -6.1045    43.1994   316.1262 </r>
       <r>    -6.0090    20.9524   320.0011 </r>
       <r>    -5.9135    38.1793   323.6475 </r>
       <r>    -5.8180     0.0000   324.0000 </r>
       <r>    -5.7225     0.0000   324.0000 </r>
       <r>    -5.6270     0.0000   324.0000 </r>
       <r>    -5.5315     0.0000   324.0000 </r>
       <r>    -5.4360     0.0000   324.0000 </r>
       <r>    -5.3405     0.0000   324.0000 </r>
       <r>    -5.2450     0.0000   324.0000 </r>
       <r>    -5.1494     0.0000   324.0000 </r>
       <r>    -5.0539     0.0000   324.0000 </r>
       <r>    -4.9584     0.0000   324.0000 </r>
       <r>    -4.8629     0.0000   324.0000 </r>
       <r>    -4.7674     0.0000   324.0000 </r>
       <r>    -4.6719     0.0000   324.0000 </r>
       <r>    -4.5764     0.0000   324.0000 </r>
       <r>    -4.4809     0.0000   324.0000 </r>
       <r>    -4.3854     0.0000   324.0000 </r>
       <r>    -4.2899     0.0000   324.0000 </r>
       <r>    -4.1944     0.0000   324.0000 </r>
       <r>    -4.0989     0.0000   324.0000 </r>
       <r>    -4.0033     0.0000   324.0000 </r>
       <r>    -3.9078     0.0000   324.0000 </r>
       <r>    -3.8123     0.0000   324.0000 </r>
       <r>    -3.7168     0.0000   324.0000 </r>
       <r>    -3.6213     0.0000   324.0000 </r>
       <r>    -3.5258     0.0000   324.0000 </r>
       <r>    -3.4303     0.0000   324.0000 </r>
       <r>    -3.3348     0.0000   324.0000 </r>
       <r>    -3.2393     1.4392   324.1375 </r>
       <r>    -3.1438    27.7109   328.0000 </r>
       <r>    -3.0483    60.0091   333.7313 </r>
       <r>    -2.9528    41.7779   337.9901 </r>
       <r>    -2.8572    49.5056   342.7310 </r>
       <r>    -2.7617    20.9332   346.0000 </r>
       <r>    -2.6662    19.8902   347.8997 </r>
       <r>    -2.5707     0.0000   348.0000 </r>
       <r>    -2.4752     0.0000   348.0000 </r>
       <r>    -2.3797     0.0000   348.0000 </r>
       <r>    -2.2842     0.0000   348.0000 </r>
       <r>    -2.1887     0.0000   348.0000 </r>
       <r>    -2.0932     0.0000   348.0000 </r>
       <r>    -1.9977     0.0000   348.0000 </r>
       <r>    -1.9022     0.0000   348.0000 </r>
       <r>    -1.8067     2.2305   348.2130 </r>
       <r>    -1.7112    26.6400   352.1797 </r>
       <r>    -1.6156    16.7455   354.0000 </r>
       <r>    -1.5201     0.0000   354.0000 </r>
       <r>    -1.4246    10.0655   354.9613 </r>
       <r>    -1.3291     4.8830   356.0000 </r>
       <r>    -1.2336     0.0024   356.0002 </r>
       <r>    -1.1381    20.9679   358.0028 </r>
       <r>    -1.0426    19.8817   360.0000 </r>
       <r>    -0.9471     0.0000   360.0000 </r>
       <r>    -0.8516     0.0000   360.0000 </r>
       <r>    -0.7561     0.0003   360.0000 </r>
       <r>    -0.6606    20.9403   362.0000 </r>
       <r>    -0.5651    20.9103   363.9971 </r>
       <r>    -0.4695    13.6843   365.3070 </r>
       <r>    -0.3740    24.2308   368.3142 </r>
       <r>    -0.2785    44.5980   374.2595 </r>
       <r>    -0.1830    21.0850   377.8325 </r>
       <r>    -0.0875    29.9902   381.9986 </r>
       <r>     0.0080    37.5905   385.5902 </r>
       <r>     0.1035    19.0956   387.8238 </r>
       <r>     0.1990    38.6609   391.6925 </r>
       <r>     0.2945    22.2074   394.0883 </r>
       <r>     0.3900    43.4289   398.4986 </r>
       <r>     0.4855    28.0069   402.2919 </r>
       <r>     0.5810    46.5400   407.1667 </r>
       <r>     0.6765    35.0152   411.1446 </r>
       <r>     0.7721    21.7108   414.1759 </r>
       <r>     0.8676     5.9278   416.0000 </r>
       <r>     0.9631     0.0000   416.0000 </r>
       <r>     1.0586     0.0000   416.0000 </r>
       <r>     1.1541     0.0000   416.0000 </r>
       <r>     1.2496     0.0000   416.0000 </r>
       <r>     1.3451     0.0000   416.0000 </r>
       <r>     1.4406     0.0000   416.0000 </r>
       <r>     1.5361     0.0000   416.0000 </r>
       <r>     1.6316     0.0000   416.0000 </r>
       <r>     1.7271     0.0000   416.0000 </r>
       <r>     1.8226     0.0000   416.0000 </r>
       <r>     1.9182     0.0000   416.0000 </r>
       <r>     2.0137     0.0000   416.0000 </r>
       <r>     2.1092     0.0000   416.0000 </r>
      </set>
     </set>
    </array>
   </total>
  </dos>
 </calculation>
 <structure name="finalpos" >
  <crystal>
   <varray name="basis" >
    <v>      22.00612530      -0.06796096       0.00000000 </v>
    <v>     -11.05189644      19.04727761       0.00000000 </v>
    <v>       0.00000000       0.00000000      20.00000000 </v>
   </varray>
   <i name="volume">   8368.11360668 </i>
   <varray name="rec_basis" >
    <v>       0.04552347       0.02641431       0.00000000 </v>
    <v>       0.00016243       0.05259519       0.00000000 </v>
    <v>       0.00000000       0.00000000       0.05000000 </v>
   </varray>
  </crystal>
  <varray name="positions" >
   <v>       0.94226172       0.22302880       0.45861903 </v>
   <v>       0.70854904       0.10202221       0.51306955 </v>
   <v>       0.05577754       0.13790533       0.55256957 </v>
   <v>       0.85644119       0.94519401       0.55147507 </v>
   <v>       0.71170195       0.28026839       0.41947123 </v>
   <v>       0.90468781       0.29713249       0.48724923 </v>
   <v>       0.91552940       0.42287845       0.52104614 </v>
   <v>       0.48720557       0.10104370       0.55871852 </v>
   <v>       0.90447475       0.63080801       0.48518167 </v>
   <v>       0.36831016       0.29861733       0.50244308 </v>
   <v>       0.95717266       0.74232723       0.49675979 </v>
   <v>       0.25694174       0.23740607       0.49413905 </v>
   <v>       0.71431419       0.45835009       0.40508223 </v>
   <v>       0.54113125       0.28082142       0.42628771 </v>
   <v>       0.04801515       0.93813660       0.55323896 </v>
   <v>       0.71041904       0.63486384       0.49286307 </v>
   <v>       0.36210892       0.09958160       0.51263896 </v>
   <v>       0.58688811       0.52234723       0.53119527 </v>
   <v>       0.95230091       0.04554780       0.55442234 </v>
   <v>       0.91357698       0.97177625       0.55450264 </v>
   <v>       0.02583751       0.08072524       0.55480087 </v>
   <v>       0.91597648       0.17889427       0.49334726 </v>
   <v>       0.84974832       0.15992944       0.52123321 </v>
   <v>       0.70101748       0.18650912       0.46539163 </v>
   <v>       0.73696082       0.15607705       0.49492820 </v>
   <v>       0.62368032       0.15335504       0.45966466 </v>
   <v>       0.59212880       0.15909886       0.39969433 </v>
   <v>       0.62221114       0.16176889       0.33545952 </v>
   <v>       0.81077109       0.19486955       0.49936785 </v>
   <v>       0.84492528       0.49621331       0.43119372 </v>
   <v>       0.82674221       0.45164416       0.37417130 </v>
   <v>       0.81157201       0.47142658       0.31085588 </v>
   <v>       0.91750839       0.08772533       0.54758287 </v>
   <v>       0.85510664       0.07394452       0.58140907 </v>
   <v>       0.82857299       0.02602240       0.63677869 </v>
   <v>       0.81208737       0.29719852       0.45188338 </v>
   <v>       0.73927997       0.25601419       0.44228810 </v>
   <v>       0.84782263       0.26606579       0.48011946 </v>
   <v>       0.84328316       0.37284342       0.43596924 </v>
   <v>       0.88406918       0.42799643       0.48158496 </v>
   <v>       0.50104254       0.15351282       0.46136129 </v>
   <v>       0.52030448       0.12403800       0.51459401 </v>
   <v>       0.94840658       0.93305764       0.55412431 </v>
   <v>       0.02245528       0.96938486       0.55547455 </v>
   <v>       0.06159358       0.04298399       0.55614443 </v>
   <v>       0.81401163       0.54121122       0.44276296 </v>
   <v>       0.84877172       0.60745735       0.47331702 </v>
   <v>       0.45848324       0.29788282       0.46257748 </v>
   <v>       0.39170867       0.26628548       0.49181416 </v>
   <v>       0.92155496       0.76072925       0.51210571 </v>
   <v>       0.23676686       0.18507224       0.51558713 </v>
   <v>       0.50295220       0.37378656       0.44808145 </v>
   <v>       0.54034167       0.39766298       0.38673999 </v>
   <v>       0.84785823       0.71513602       0.51457812 </v>
   <v>       0.28144294       0.15764359       0.52859443 </v>
   <v>       0.51266048       0.35921392       0.32586438 </v>
   <v>       0.81167994       0.64222804       0.48868870 </v>
   <v>       0.35581714       0.19402763       0.50689250 </v>
   <v>       0.48924754       0.25685128       0.44947601 </v>
   <v>       0.70336909       0.54172614       0.44779810 </v>
   <v>       0.74217626       0.51018306       0.42827850 </v>
   <v>       0.73841425       0.60794416       0.47793628 </v>
   <v>       0.45684319       0.18630774       0.46953578 </v>
   <v>       0.38988309       0.15490336       0.49824681 </v>
   <v>       0.62612307       0.49659923       0.44025475 </v>
   <v>       0.91131067       0.85556064       0.54653205 </v>
   <v>       0.83824357       0.80777042       0.55634649 </v>
   <v>       0.78987191       0.82640401       0.58466883 </v>
   <v>       0.13933834       0.08307718       0.55246051 </v>
   <v>       0.18554347       0.05889989       0.57232717 </v>
   <v>       0.16245790       0.99514261       0.60955815 </v>
   <v>       0.57695066       0.48389169       0.49197002 </v>
   <v>       0.94830680       0.14288499       0.50546385 </v>
   <v>       0.82163545       0.38865260       0.37958857 </v>
   <v>       0.64793528       0.16266764       0.28409309 </v>
   <v>       0.53397627       0.16400054       0.40267771 </v>
   <v>       0.80028675       0.48992464       0.25998302 </v>
   <v>       0.82063390       0.10817202       0.56661492 </v>
   <v>       0.81025035       0.98969972       0.68385141 </v>
   <v>       0.58295513       0.12832368       0.51415138 </v>
   <v>       0.88079699       0.48676552       0.48036636 </v>
   <v>       0.95144245       0.82858034       0.52648768 </v>
   <v>       0.16800929       0.14833619       0.52636680 </v>
   <v>       0.60340216       0.45641802       0.38542499 </v>
   <v>       0.48734359       0.32667276       0.27731327 </v>
   <v>       0.80775476       0.73968682       0.53904186 </v>
   <v>       0.74784034       0.83864283       0.60617236 </v>
   <v>       0.25484141       0.09501918       0.55883222 </v>
   <v>       0.14454254       0.94368140       0.64019285 </v>
   <v>       0.51831060       0.42134083       0.49666180 </v>
  </varray>
 </structure>
</modeling>
