<?xml version="1.0" encoding="ISO-8859-1"?>
<modeling>
 <generator>
  <i name="program" type="string">vasp </i>
  <i name="version" type="string">5.4.4.18Apr17-6-g9f103f2a35  </i>
  <i name="subversion" type="string">(build Jun 07 2020 16:50:00) complex            parallel </i>
  <i name="platform" type="string">LinuxIFC </i>
  <i name="date" type="string">2023 02 15 </i>
  <i name="time" type="string">06:39:40 </i>
 </generator>
 <incar>
  <i type="string" name="SYSTEM">Simulation for cell shape cell volume r</i>
  <i type="int" name="ISTART">     1</i>
  <i type="string" name="PREC">high</i>
  <i type="string" name="ALGO">48</i>
  <i type="int" name="ICHARG">    11</i>
  <i type="int" name="NELM">   200</i>
  <i type="int" name="IBRION">    -1</i>
  <i name="EDIFF">      0.00001000</i>
  <i name="EDIFFG">     -0.01000000</i>
  <i type="int" name="NSW">     0</i>
  <i type="int" name="ISIF">     2</i>
  <i name="ENCUT">    500.00000000</i>
  <i name="POTIM">      0.30000000</i>
  <i type="string" name="LREAL">A</i>
  <i type="int" name="ISMEAR">     0</i>
  <i name="SIGMA">      0.01000000</i>
  <i type="int" name="NWRITE">     0</i>
  <i type="logical" name="LWAVE"> F  </i>
  <i type="logical" name="LCHARG"> F  </i>
  <v type="int" name="KPOINT_BSE">    -1     0     0     0</v>
  <i type="int" name="NELM">   200</i>
  <i type="string" name="GGA">PE</i>
 </incar>
 <structure name="primitive_cell" >
  <crystal>
   <varray name="basis" >
    <v>      22.19191845       0.00300481       0.00000000 </v>
    <v>     -11.09333586      19.21518127       0.00000000 </v>
    <v>       0.00000000       0.00000000      20.00000000 </v>
   </varray>
   <i name="volume">   8529.10138270 </i>
   <varray name="rec_basis" >
    <v>       0.04505793       0.02601291       0.00000000 </v>
    <v>      -0.00000705       0.05203812       0.00000000 </v>
    <v>       0.00000000       0.00000000       0.05000000 </v>
   </varray>
  </crystal>
  <varray name="positions" >
   <v>       0.26636874      -0.38593749       0.46741150 </v>
   <v>       0.28689782      -0.31525922       0.46723200 </v>
   <v>       0.31738745      -0.40551799       0.46677310 </v>
   <v>       0.19232432      -0.44450894       0.47245674 </v>
   <v>       0.29778075      -0.46148943       0.46827604 </v>
   <v>       0.25050861      -0.29568909       0.46890809 </v>
   <v>       0.17837362       0.49422504       0.47647475 </v>
   <v>       0.35748145      -0.26422110       0.46678160 </v>
   <v>       0.38804713      -0.35543691       0.46613227 </v>
   <v>       0.14264970      -0.42489085       0.47397577 </v>
   <v>       0.15952524      -0.37329774       0.46905596 </v>
   <v>       0.40756904      -0.28483440       0.46583376 </v>
   <v>       0.37312221      -0.19003036       0.47117327 </v>
   <v>       0.07136812      -0.46658382       0.48630286 </v>
   <v>       0.37518403      -0.47503564       0.46893088 </v>
   <v>       0.44662118      -0.37104701       0.47002418 </v>
   <v>       0.46354943      -0.24845578       0.46591054 </v>
   <v>       0.32609401      -0.17551405       0.47092668 </v>
   <v>       0.42691853      -0.44035623       0.47240440 </v>
   <v>       0.06348000       0.43185168       0.49636925 </v>
   <v>       0.03613963       0.46110577       0.49805783 </v>
   <v>       0.05393972      -0.37866306       0.47848448 </v>
   <v>       0.03043954      -0.43463864       0.48822893 </v>
   <v>      -0.49200675      -0.32381304       0.47268216 </v>
   <v>       0.44226450      -0.14098048       0.47743360 </v>
   <v>       0.47659414      -0.15862465       0.47715747 </v>
   <v>       0.46861503      -0.46989128       0.48507980 </v>
   <v>      -0.03174247       0.42633587      -0.48818173 </v>
   <v>       0.38010176       0.42483598       0.48138812 </v>
   <v>      -0.03735065      -0.46879465      -0.49873200 </v>
   <v>       0.47185658      -0.06974593       0.48993114 </v>
   <v>       0.43637138       0.45732696       0.48943625 </v>
   <v>       0.37884237      -0.05996311       0.49085118 </v>
   <v>      -0.06506925       0.46302744      -0.48668737 </v>
   <v>      -0.42936442      -0.37630810       0.49148800 </v>
   <v>      -0.45878709      -0.43281236       0.49498341 </v>
   <v>       0.43511912      -0.03348767       0.49667742 </v>
   <v>      -0.42343173      -0.05450569       0.49229250 </v>
   <v>      -0.45562320      -0.03000997       0.49758151 </v>
   <v>       0.47056291       0.42381596      -0.49702035 </v>
   <v>      -0.13579856       0.42235024      -0.47294432 </v>
   <v>      -0.42392236      -0.46578064      -0.49094332 </v>
   <v>       0.46818435       0.03435924      -0.48942341 </v>
   <v>      -0.15157511       0.37077323      -0.47227924 </v>
   <v>      -0.46088593       0.46429501      -0.48715983 </v>
   <v>      -0.42201527       0.03766372      -0.48876877 </v>
   <v>      -0.46217083       0.06659200      -0.48253076 </v>
   <v>      -0.18475765       0.44236071      -0.46036088 </v>
   <v>      -0.17103159      -0.49706992      -0.45382004 </v>
   <v>      -0.42020793       0.43426645      -0.47329198 </v>
   <v>      -0.24132617       0.29359347      -0.45503441 </v>
   <v>      -0.36862004       0.46996296      -0.47331561 </v>
   <v>      -0.43213814       0.13741060      -0.46919744 </v>
   <v>      -0.25871506       0.38279756      -0.45686720 </v>
   <v>       0.49917758       0.31857024      -0.45332678 </v>
   <v>      -0.46761235       0.15355713      -0.47137654 </v>
   <v>      -0.44028279       0.36532226      -0.46021568 </v>
   <v>      -0.27835912       0.31240092      -0.45568622 </v>
   <v>      -0.29153365       0.45740964      -0.45742019 </v>
   <v>      -0.36312802       0.18665528      -0.45712030 </v>
   <v>      -0.31621879       0.17312948      -0.44989303 </v>
   <v>      -0.31038479       0.40155233      -0.45699595 </v>
   <v>      -0.34877078       0.26071278      -0.45530320 </v>
   <v>      -0.38077255       0.35082070      -0.45675673 </v>
   <v>      -0.45535614       0.24337886      -0.45470003 </v>
   <v>      -0.39951781       0.28038872      -0.45547848 </v>
  </varray>
 </structure>
 <varray name="primitive_index" >
  <v type="int" >        1 </v>
  <v type="int" >        5 </v>
  <v type="int" >        2 </v>
  <v type="int" >        6 </v>
  <v type="int" >       33 </v>
  <v type="int" >       32 </v>
  <v type="int" >       50 </v>
  <v type="int" >       21 </v>
  <v type="int" >        3 </v>
  <v type="int" >       58 </v>
  <v type="int" >       40 </v>
  <v type="int" >        4 </v>
  <v type="int" >       22 </v>
  <v type="int" >       18 </v>
  <v type="int" >       42 </v>
  <v type="int" >        7 </v>
  <v type="int" >       31 </v>
  <v type="int" >       49 </v>
  <v type="int" >       60 </v>
  <v type="int" >       45 </v>
  <v type="int" >       28 </v>
  <v type="int" >       39 </v>
  <v type="int" >       17 </v>
  <v type="int" >       51 </v>
  <v type="int" >       56 </v>
  <v type="int" >       38 </v>
  <v type="int" >       20 </v>
  <v type="int" >       63 </v>
  <v type="int" >       41 </v>
  <v type="int" >       57 </v>
  <v type="int" >       16 </v>
  <v type="int" >       19 </v>
  <v type="int" >       43 </v>
  <v type="int" >       27 </v>
  <v type="int" >       47 </v>
  <v type="int" >       30 </v>
  <v type="int" >       26 </v>
  <v type="int" >       37 </v>
  <v type="int" >       15 </v>
  <v type="int" >       59 </v>
  <v type="int" >       64 </v>
  <v type="int" >       65 </v>
  <v type="int" >       61 </v>
  <v type="int" >       46 </v>
  <v type="int" >       29 </v>
  <v type="int" >       55 </v>
  <v type="int" >       25 </v>
  <v type="int" >       13 </v>
  <v type="int" >       53 </v>
  <v type="int" >       66 </v>
  <v type="int" >       35 </v>
  <v type="int" >       48 </v>
  <v type="int" >       62 </v>
  <v type="int" >        8 </v>
  <v type="int" >       54 </v>
  <v type="int" >       44 </v>
  <v type="int" >       14 </v>
  <v type="int" >       12 </v>
  <v type="int" >       36 </v>
  <v type="int" >       24 </v>
  <v type="int" >       52 </v>
  <v type="int" >        9 </v>
  <v type="int" >       23 </v>
  <v type="int" >       10 </v>
  <v type="int" >       34 </v>
  <v type="int" >       11 </v>
 </varray>
 <kpoints>
  <generation param="listgenerated">
   <i name="divisions" type="int">      20 </i>
   <v>       0.00000000       0.00000000       0.00000000 </v>
   <v>       0.50000000       0.00000000       0.00000000 </v>
   <v>       0.33333333       0.33333333       0.00000000 </v>
   <v>       0.00000000       0.00000000       0.00000000 </v>
  </generation>
  <varray name="kpointlist" >
   <v>       0.00000000       0.00000000       0.00000000 </v>
   <v>       0.02631579       0.00000000       0.00000000 </v>
   <v>       0.05263158       0.00000000       0.00000000 </v>
   <v>       0.07894737       0.00000000       0.00000000 </v>
   <v>       0.10526316       0.00000000       0.00000000 </v>
   <v>       0.13157895       0.00000000       0.00000000 </v>
   <v>       0.15789474       0.00000000       0.00000000 </v>
   <v>       0.18421053       0.00000000       0.00000000 </v>
   <v>       0.21052632       0.00000000       0.00000000 </v>
   <v>       0.23684211       0.00000000       0.00000000 </v>
   <v>       0.26315789       0.00000000       0.00000000 </v>
   <v>       0.28947368       0.00000000       0.00000000 </v>
   <v>       0.31578947       0.00000000       0.00000000 </v>
   <v>       0.34210526       0.00000000       0.00000000 </v>
   <v>       0.36842105       0.00000000       0.00000000 </v>
   <v>       0.39473684       0.00000000       0.00000000 </v>
   <v>       0.42105263       0.00000000       0.00000000 </v>
   <v>       0.44736842       0.00000000       0.00000000 </v>
   <v>       0.47368421       0.00000000       0.00000000 </v>
   <v>       0.50000000       0.00000000       0.00000000 </v>
   <v>       0.50000000       0.00000000       0.00000000 </v>
   <v>       0.49122807       0.01754386       0.00000000 </v>
   <v>       0.48245614       0.03508772       0.00000000 </v>
   <v>       0.47368421       0.05263158       0.00000000 </v>
   <v>       0.46491228       0.07017544       0.00000000 </v>
   <v>       0.45614035       0.08771930       0.00000000 </v>
   <v>       0.44736842       0.10526316       0.00000000 </v>
   <v>       0.43859649       0.12280702       0.00000000 </v>
   <v>       0.42982456       0.14035088       0.00000000 </v>
   <v>       0.42105263       0.15789474       0.00000000 </v>
   <v>       0.41228070       0.17543860       0.00000000 </v>
   <v>       0.40350877       0.19298246       0.00000000 </v>
   <v>       0.39473684       0.21052632       0.00000000 </v>
   <v>       0.38596491       0.22807018       0.00000000 </v>
   <v>       0.37719298       0.24561404       0.00000000 </v>
   <v>       0.36842105       0.26315789       0.00000000 </v>
   <v>       0.35964912       0.28070175       0.00000000 </v>
   <v>       0.35087719       0.29824561       0.00000000 </v>
   <v>       0.34210526       0.31578947       0.00000000 </v>
   <v>       0.33333333       0.33333333       0.00000000 </v>
   <v>       0.33333333       0.33333333       0.00000000 </v>
   <v>       0.31578947       0.31578947       0.00000000 </v>
   <v>       0.29824561       0.29824561       0.00000000 </v>
   <v>       0.28070175       0.28070175       0.00000000 </v>
   <v>       0.26315789       0.26315789       0.00000000 </v>
   <v>       0.24561404       0.24561404       0.00000000 </v>
   <v>       0.22807018       0.22807018       0.00000000 </v>
   <v>       0.21052632       0.21052632       0.00000000 </v>
   <v>       0.19298246       0.19298246       0.00000000 </v>
   <v>       0.17543860       0.17543860       0.00000000 </v>
   <v>       0.15789474       0.15789474       0.00000000 </v>
   <v>       0.14035088       0.14035088       0.00000000 </v>
   <v>       0.12280702       0.12280702       0.00000000 </v>
   <v>       0.10526316       0.10526316       0.00000000 </v>
   <v>       0.08771930       0.08771930       0.00000000 </v>
   <v>       0.07017544       0.07017544       0.00000000 </v>
   <v>       0.05263158       0.05263158       0.00000000 </v>
   <v>       0.03508772       0.03508772       0.00000000 </v>
   <v>       0.01754386       0.01754386       0.00000000 </v>
   <v>       0.00000000       0.00000000       0.00000000 </v>
  </varray>
  <varray name="weights" >
   <v>       0.01666667 </v>
   <v>       0.01666667 </v>
   <v>       0.01666667 </v>
   <v>       0.01666667 </v>
   <v>       0.01666667 </v>
   <v>       0.01666667 </v>
   <v>       0.01666667 </v>
   <v>       0.01666667 </v>
   <v>       0.01666667 </v>
   <v>       0.01666667 </v>
   <v>       0.01666667 </v>
   <v>       0.01666667 </v>
   <v>       0.01666667 </v>
   <v>       0.01666667 </v>
   <v>       0.01666667 </v>
   <v>       0.01666667 </v>
   <v>       0.01666667 </v>
   <v>       0.01666667 </v>
   <v>       0.01666667 </v>
   <v>       0.01666667 </v>
   <v>       0.01666667 </v>
   <v>       0.01666667 </v>
   <v>       0.01666667 </v>
   <v>       0.01666667 </v>
   <v>       0.01666667 </v>
   <v>       0.01666667 </v>
   <v>       0.01666667 </v>
   <v>       0.01666667 </v>
   <v>       0.01666667 </v>
   <v>       0.01666667 </v>
   <v>       0.01666667 </v>
   <v>       0.01666667 </v>
   <v>       0.01666667 </v>
   <v>       0.01666667 </v>
   <v>       0.01666667 </v>
   <v>       0.01666667 </v>
   <v>       0.01666667 </v>
   <v>       0.01666667 </v>
   <v>       0.01666667 </v>
   <v>       0.01666667 </v>
   <v>       0.01666667 </v>
   <v>       0.01666667 </v>
   <v>       0.01666667 </v>
   <v>       0.01666667 </v>
   <v>       0.01666667 </v>
   <v>       0.01666667 </v>
   <v>       0.01666667 </v>
   <v>       0.01666667 </v>
   <v>       0.01666667 </v>
   <v>       0.01666667 </v>
   <v>       0.01666667 </v>
   <v>       0.01666667 </v>
   <v>       0.01666667 </v>
   <v>       0.01666667 </v>
   <v>       0.01666667 </v>
   <v>       0.01666667 </v>
   <v>       0.01666667 </v>
   <v>       0.01666667 </v>
   <v>       0.01666667 </v>
   <v>       0.01666667 </v>
  </varray>
 </kpoints>
 <parameters>
  <separator name="general" >
   <i type="string" name="SYSTEM">Simulation for cell shape cell volume r</i>
   <i type="logical" name="LCOMPAT"> F  </i>
  </separator>
  <separator name="electronic" >
   <i type="string" name="PREC">high</i>
   <i name="ENMAX">    500.00000000</i>
   <i name="ENAUG">    644.87300000</i>
   <i name="EDIFF">      0.00001000</i>
   <i type="int" name="IALGO">    38</i>
   <i type="int" name="IWAVPR">    10</i>
   <i type="int" name="NBANDS">   160</i>
   <i name="NELECT">    234.00000000</i>
   <i type="int" name="TURBO">     0</i>
   <i type="int" name="IRESTART">     0</i>
   <i type="int" name="NREBOOT">     0</i>
   <i type="int" name="NMIN">     0</i>
   <i name="EREF">      0.00000000</i>
   <separator name="electronic smearing" >
    <i type="int" name="ISMEAR">     0</i>
    <i name="SIGMA">      0.01000000</i>
    <i name="KSPACING">      0.50000000</i>
    <i type="logical" name="KGAMMA"> T  </i>
   </separator>
   <separator name="electronic projectors" >
    <i type="logical" name="LREAL"> T  </i>
    <v name="ROPT">     -0.00040000     -0.00040000     -0.00040000     -0.00040000</v>
    <i type="int" name="LMAXPAW">  -100</i>
    <i type="int" name="LMAXMIX">     2</i>
    <i type="logical" name="NLSPLINE"> F  </i>
   </separator>
   <separator name="electronic startup" >
    <i type="int" name="ISTART">     1</i>
    <i type="int" name="ICHARG">    11</i>
    <i type="int" name="INIWAV">     1</i>
   </separator>
   <separator name="electronic spin" >
    <i type="int" name="ISPIN">     1</i>
    <i type="logical" name="LNONCOLLINEAR"> F  </i>
    <v name="MAGMOM">      1.00000000      1.00000000      1.00000000      1.00000000      1.00000000      1.00000000      1.00000000      1.00000000      1.00000000      1.00000000      1.00000000      1.00000000      1.00000000      1.00000000      1.00000000      1.00000000      1.00000000      1.00000000      1.00000000      1.00000000
      1.00000000      1.00000000      1.00000000      1.00000000      1.00000000      1.00000000      1.00000000      1.00000000      1.00000000      1.00000000      1.00000000      1.00000000      1.00000000      1.00000000      1.00000000      1.00000000      1.00000000      1.00000000      1.00000000      1.00000000
      1.00000000      1.00000000      1.00000000      1.00000000      1.00000000      1.00000000      1.00000000      1.00000000      1.00000000      1.00000000      1.00000000      1.00000000      1.00000000      1.00000000      1.00000000      1.00000000      1.00000000      1.00000000      1.00000000      1.00000000
      1.00000000      1.00000000      1.00000000      1.00000000      1.00000000      1.00000000</v>
    <i name="NUPDOWN">     -1.00000000</i>
    <i type="logical" name="LSORBIT"> F  </i>
    <v name="SAXIS">      0.00000000      0.00000000      1.00000000</v>
    <i type="logical" name="LSPIRAL"> F  </i>
    <v name="QSPIRAL">      0.00000000      0.00000000      0.00000000</v>
    <i type="logical" name="LZEROZ"> F  </i>
   </separator>
   <separator name="electronic exchange-correlation" >
    <i type="logical" name="LASPH"> F  </i>
    <i type="logical" name="LMETAGGA"> F  </i>
   </separator>
   <separator name="electronic convergence" >
    <i type="int" name="NELM">   200</i>
    <i type="int" name="NELMDL">     0</i>
    <i type="int" name="NELMIN">     2</i>
    <i name="ENINI">    500.00000000</i>
    <separator name="electronic convergence detail" >
     <i type="logical" name="LDIAG"> T  </i>
     <i type="logical" name="LSUBROT"> F  </i>
     <i name="WEIMIN">      0.00000000</i>
     <i name="EBREAK">      0.00000002</i>
     <i name="DEPER">      0.30000000</i>
     <i type="int" name="NRMM">     4</i>
     <i name="TIME">      0.40000000</i>
    </separator>
   </separator>
   <separator name="electronic mixer" >
    <i name="AMIX">      0.40000000</i>
    <i name="BMIX">      1.00000000</i>
    <i name="AMIN">      0.10000000</i>
    <i name="AMIX_MAG">      1.60000000</i>
    <i name="BMIX_MAG">      1.00000000</i>
    <separator name="electronic mixer details" >
     <i type="int" name="IMIX">     4</i>
     <i type="logical" name="MIXFIRST"> F  </i>
     <i type="int" name="MAXMIX">   -45</i>
     <i name="WC">    100.00000000</i>
     <i type="int" name="INIMIX">     1</i>
     <i type="int" name="MIXPRE">     1</i>
     <i type="int" name="MREMOVE">     5</i>
    </separator>
   </separator>
   <separator name="electronic dipolcorrection" >
    <i type="logical" name="LDIPOL"> F  </i>
    <i type="logical" name="LMONO"> F  </i>
    <i type="int" name="IDIPOL">     0</i>
    <i name="EPSILON">      1.00000000</i>
    <v name="DIPOL">   -100.00000000   -100.00000000   -100.00000000</v>
    <i name="EFIELD">      0.00000000</i>
   </separator>
  </separator>
  <separator name="grids" >
   <i type="int" name="NGX">   162</i>
   <i type="int" name="NGY">   162</i>
   <i type="int" name="NGZ">   150</i>
   <i type="int" name="NGXF">   250</i>
   <i type="int" name="NGYF">   250</i>
   <i type="int" name="NGZF">   224</i>
   <i type="logical" name="ADDGRID"> F  </i>
  </separator>
  <separator name="ionic" >
   <i type="int" name="NSW">     0</i>
   <i type="int" name="IBRION">    -1</i>
   <i type="int" name="MDALGO">     0</i>
   <i type="int" name="ISIF">     2</i>
   <i name="PSTRESS">      0.00000000</i>
   <i name="EDIFFG">     -0.01000000</i>
   <i type="int" name="NFREE">     0</i>
   <i name="POTIM">      0.30000000</i>
   <i name="SMASS">     -3.00000000</i>
   <i name="SCALEE">      1.00000000</i>
  </separator>
  <separator name="ionic md" >
   <i name="TEBEG">      0.00010000</i>
   <i name="TEEND">      0.00010000</i>
   <i type="int" name="NBLOCK">     1</i>
   <i type="int" name="KBLOCK">     1</i>
   <i type="int" name="NPACO">   256</i>
   <i name="APACO">     16.00000000</i>
  </separator>
  <separator name="symmetry" >
   <i type="int" name="ISYM">     2</i>
   <i name="SYMPREC">      0.00001000</i>
  </separator>
  <separator name="dos" >
   <i type="int" name="LORBIT">     0</i>
   <v name="RWIGS">     -1.00000000     -1.00000000     -1.00000000     -1.00000000</v>
   <i type="int" name="NEDOS">   301</i>
   <i name="EMIN">     10.00000000</i>
   <i name="EMAX">    -10.00000000</i>
   <i name="EFERMI">      0.00000000</i>
  </separator>
  <separator name="writing" >
   <i type="int" name="NWRITE">     0</i>
   <i type="logical" name="LWAVE"> F  </i>
   <i type="logical" name="LDOWNSAMPLE"> F  </i>
   <i type="logical" name="LCHARG"> F  </i>
   <i type="logical" name="LPARD"> F  </i>
   <i type="logical" name="LVTOT"> F  </i>
   <i type="logical" name="LVHAR"> F  </i>
   <i type="logical" name="LELF"> F  </i>
   <i type="logical" name="LOPTICS"> F  </i>
   <v name="STM">      0.00000000      0.00000000      0.00000000      0.00000000      0.00000000      0.00000000      0.00000000</v>
  </separator>
  <separator name="performance" >
   <i type="int" name="NPAR">    16</i>
   <i type="int" name="NSIM">     4</i>
   <i type="int" name="NBLK">    -1</i>
   <i type="logical" name="LPLANE"> T  </i>
   <i type="logical" name="LSCALAPACK"> T  </i>
   <i type="logical" name="LSCAAWARE"> F  </i>
   <i type="logical" name="LSCALU"> F  </i>
   <i type="logical" name="LASYNC"> F  </i>
   <i type="logical" name="LORBITALREAL"> F  </i>
  </separator>
  <separator name="miscellaneous" >
   <i type="int" name="IDIOT">     3</i>
   <i type="int" name="ISPECIAL">     0</i>
   <i type="logical" name="LMUSIC"> F  </i>
   <v name="POMASS">     12.01100000      1.00000000     16.00000000     14.00100000</v>
   <v name="DARWINR">      0.00000000      0.00000000      0.00000000      0.00000000</v>
   <v name="DARWINV">      1.00000000      1.00000000      1.00000000      1.00000000</v>
   <i type="logical" name="LCORR"> T  </i>
  </separator>
  <i type="logical" name="GGA_COMPAT"> T  </i>
  <i type="logical" name="LBERRY"> F  </i>
  <i type="int" name="ICORELEVEL">     0</i>
  <i type="logical" name="LDAU"> F  </i>
  <i type="int" name="I_CONSTRAINED_M">     0</i>
  <separator name="electronic exchange-correlation" >
   <i type="string" name="GGA">PE</i>
   <i type="int" name="VOSKOWN">     0</i>
   <i type="logical" name="LHFCALC"> F  </i>
   <i type="string" name="PRECFOCK"></i>
   <i type="logical" name="LSYMGRAD"> F  </i>
   <i type="logical" name="LHFONE"> F  </i>
   <i type="logical" name="LRHFCALC"> F  </i>
   <i type="logical" name="LTHOMAS"> F  </i>
   <i type="logical" name="LMODELHF"> F  </i>
   <i name="ENCUT4O">     -1.00000000</i>
   <i type="int" name="EXXOEP">     0</i>
   <i type="int" name="FOURORBIT">     0</i>
   <i name="AEXX">      0.00000000</i>
   <i name="HFALPHA">      0.00000000</i>
   <i name="MCALPHA">      0.00000000</i>
   <i name="ALDAX">      1.00000000</i>
   <i name="AGGAX">      1.00000000</i>
   <i name="ALDAC">      1.00000000</i>
   <i name="AGGAC">      1.00000000</i>
   <i type="int" name="NKREDX">     1</i>
   <i type="int" name="NKREDY">     1</i>
   <i type="int" name="NKREDZ">     1</i>
   <i type="logical" name="SHIFTRED"> F  </i>
   <i type="logical" name="ODDONLY"> F  </i>
   <i type="logical" name="EVENONLY"> F  </i>
   <i type="int" name="LMAXFOCK">     0</i>
   <i type="int" name="NMAXFOCKAE">     0</i>
   <i type="logical" name="LFOCKAEDFT"> F  </i>
   <i name="HFSCREEN">      0.00000000</i>
   <i name="HFSCREENC">      0.00000000</i>
   <i type="int" name="NBANDSGWLOW">     0</i>
  </separator>
  <separator name="vdW DFT" >
   <i type="logical" name="LUSE_VDW"> F  </i>
   <i name="Zab_VDW">     -0.84910000</i>
   <i name="PARAM1">      0.12340000</i>
   <i name="PARAM2">      1.00000000</i>
   <i name="PARAM3">      0.00000000</i>
  </separator>
  <separator name="model GW" >
   <i type="int" name="MODEL_GW">     0</i>
   <i name="MODEL_EPS0">     77.53728530</i>
   <i name="MODEL_ALPHA">      1.00000000</i>
  </separator>
  <separator name="linear response parameters" >
   <i type="logical" name="LEPSILON"> F  </i>
   <i type="logical" name="LRPA"> F  </i>
   <i type="logical" name="LNABLA"> F  </i>
   <i type="logical" name="LVEL"> F  </i>
   <i type="int" name="KINTER">     0</i>
   <i name="CSHIFT">      0.10000000</i>
   <i name="OMEGAMAX">     -1.00000000</i>
   <i name="DEG_THRESHOLD">      0.00200000</i>
   <i name="RTIME">     -0.10000000</i>
   <i name="WPLASMAI">      0.00000000</i>
   <v name="DFIELD">      0.00000000      0.00000000      0.00000000</v>
   <v name="WPLASMA">      0.00000000      0.00000000      0.00000000      0.00000000      0.00000000      0.00000000      0.00000000      0.00000000      0.00000000</v>
  </separator>
  <separator name="orbital magnetization" >
   <i type="logical" name="NUCIND"> F  </i>
   <v name="MAGPOS">      0.00000000      0.00000000      0.00000000</v>
   <i type="logical" name="LNICSALL"> T  </i>
   <i type="logical" name="ORBITALMAG"> F  </i>
   <i type="logical" name="LMAGBLOCH"> F  </i>
   <i type="logical" name="LCHIMAG"> F  </i>
   <i type="logical" name="LGAUGE"> T  </i>
   <i type="int" name="MAGATOM">     0</i>
   <v name="MAGDIPOL">      0.00000000      0.00000000      0.00000000</v>
   <v name="AVECCONST">      0.00000000      0.00000000      0.00000000</v>
  </separator>
  <separator name="response functions" >
   <i type="logical" name="LADDER"> F  </i>
   <i type="logical" name="LRPAFORCE"> F  </i>
   <i type="logical" name="LFXC"> F  </i>
   <i type="logical" name="LHARTREE"> T  </i>
   <i type="int" name="IBSE">     0</i>
   <v type="int" name="KPOINT">    -1     0     0     0</v>
   <i type="logical" name="LTCTE"> F  </i>
   <i type="logical" name="LTETE"> F  </i>
   <i type="logical" name="LTRIPLET"> F  </i>
   <i type="logical" name="LFXCEPS"> F  </i>
   <i type="logical" name="LFXHEG"> F  </i>
   <i type="int" name="NATURALO">     2</i>
   <i type="logical" name="L2ORDER"> F  </i>
   <i type="logical" name="LMP2LT"> F  </i>
   <i type="logical" name="LUSEW"> F  </i>
   <i name="ENCUTGW">     -2.00000000</i>
   <i name="ENCUTGWSOFT">     -2.00000000</i>
   <i name="ENCUTLF">     -1.00000000</i>
   <i type="int" name="LMAXMP2">    -1</i>
   <i name="SCISSOR">      0.00000000</i>
   <i type="int" name="NOMEGA">     0</i>
   <i type="int" name="NOMEGAR">     0</i>
   <i type="int" name="NBANDSGW">    -1</i>
   <i type="int" name="NBANDSO">    -1</i>
   <i type="int" name="NBANDSV">    -1</i>
   <i type="int" name="NELM">   200</i>
   <i type="int" name="NELMHF">     1</i>
   <i type="int" name="DIM">     3</i>
   <i type="int" name="ANTIRES">     0</i>
   <i name="OMEGAMAX">    -30.00000000</i>
   <i name="OMEGAMIN">    -30.00000000</i>
   <i name="OMEGATL">   -200.00000000</i>
   <i type="int" name="OMEGAGRID">   140</i>
   <i name="CSHIFT">     -0.10000000</i>
   <i type="logical" name="SELFENERGY"> F  </i>
   <i type="logical" name="LSPECTRAL"> F  </i>
   <i type="logical" name="LSPECTRALGW"> F  </i>
   <i type="logical" name="LSINGLES"> F  </i>
   <i type="logical" name="LFERMIGW"> F  </i>
   <i type="logical" name="ODDONLYGW"> F  </i>
   <i type="logical" name="EVENONLYGW"> F  </i>
   <i type="int" name="NKREDLFX">     1</i>
   <i type="int" name="NKREDLFY">     1</i>
   <i type="int" name="NKREDLFZ">     1</i>
   <i type="int" name="MAXMEM">  2800</i>
   <i type="int" name="TELESCOPE">     0</i>
   <i type="int" name="TAUPAR">     1</i>
   <i type="int" name="OMEGAPAR">    -1</i>
   <i name="LAMBDA">      1.00000000</i>
  </separator>
  <separator name="External order field" >
   <i name="OFIELD_KAPPA">      0.00000000</i>
   <v name="OFIELD_K">      0.00000000      0.00000000      0.00000000</v>
   <i name="OFIELD_Q6_NEAR">      0.00000000</i>
   <i name="OFIELD_Q6_FAR">      0.00000000</i>
   <i name="OFIELD_A">      0.00000000</i>
  </separator>
  <separator name="solvation model" >
   <i type="logical" name="LSOL"> F  </i>
  </separator>
 </parameters>
 <atominfo>
  <atoms>      66 </atoms>
  <types>       4 </types>
  <array name="atoms" >
   <dimension dim="1">ion</dimension>
   <field type="string">element</field>
   <field type="int">atomtype</field>
   <set>
    <rc><c>C </c><c>   1</c></rc>
    <rc><c>C </c><c>   1</c></rc>
    <rc><c>C </c><c>   1</c></rc>
    <rc><c>C </c><c>   1</c></rc>
    <rc><c>C </c><c>   1</c></rc>
    <rc><c>C </c><c>   1</c></rc>
    <rc><c>C </c><c>   1</c></rc>
    <rc><c>C </c><c>   1</c></rc>
    <rc><c>C </c><c>   1</c></rc>
    <rc><c>C </c><c>   1</c></rc>
    <rc><c>C </c><c>   1</c></rc>
    <rc><c>C </c><c>   1</c></rc>
    <rc><c>C </c><c>   1</c></rc>
    <rc><c>C </c><c>   1</c></rc>
    <rc><c>C </c><c>   1</c></rc>
    <rc><c>C </c><c>   1</c></rc>
    <rc><c>C </c><c>   1</c></rc>
    <rc><c>C </c><c>   1</c></rc>
    <rc><c>C </c><c>   1</c></rc>
    <rc><c>C </c><c>   1</c></rc>
    <rc><c>C </c><c>   1</c></rc>
    <rc><c>C </c><c>   1</c></rc>
    <rc><c>C </c><c>   1</c></rc>
    <rc><c>C </c><c>   1</c></rc>
    <rc><c>C </c><c>   1</c></rc>
    <rc><c>C </c><c>   1</c></rc>
    <rc><c>C </c><c>   1</c></rc>
    <rc><c>C </c><c>   1</c></rc>
    <rc><c>C </c><c>   1</c></rc>
    <rc><c>C </c><c>   1</c></rc>
    <rc><c>H </c><c>   2</c></rc>
    <rc><c>H </c><c>   2</c></rc>
    <rc><c>H </c><c>   2</c></rc>
    <rc><c>H </c><c>   2</c></rc>
    <rc><c>H </c><c>   2</c></rc>
    <rc><c>H </c><c>   2</c></rc>
    <rc><c>H </c><c>   2</c></rc>
    <rc><c>H </c><c>   2</c></rc>
    <rc><c>H </c><c>   2</c></rc>
    <rc><c>H </c><c>   2</c></rc>
    <rc><c>H </c><c>   2</c></rc>
    <rc><c>H </c><c>   2</c></rc>
    <rc><c>H </c><c>   2</c></rc>
    <rc><c>H </c><c>   2</c></rc>
    <rc><c>H </c><c>   2</c></rc>
    <rc><c>H </c><c>   2</c></rc>
    <rc><c>H </c><c>   2</c></rc>
    <rc><c>H </c><c>   2</c></rc>
    <rc><c>O </c><c>   3</c></rc>
    <rc><c>O </c><c>   3</c></rc>
    <rc><c>O </c><c>   3</c></rc>
    <rc><c>O </c><c>   3</c></rc>
    <rc><c>O </c><c>   3</c></rc>
    <rc><c>O </c><c>   3</c></rc>
    <rc><c>N </c><c>   4</c></rc>
    <rc><c>N </c><c>   4</c></rc>
    <rc><c>N </c><c>   4</c></rc>
    <rc><c>N </c><c>   4</c></rc>
    <rc><c>N </c><c>   4</c></rc>
    <rc><c>N </c><c>   4</c></rc>
    <rc><c>N </c><c>   4</c></rc>
    <rc><c>N </c><c>   4</c></rc>
    <rc><c>N </c><c>   4</c></rc>
    <rc><c>N </c><c>   4</c></rc>
    <rc><c>N </c><c>   4</c></rc>
    <rc><c>N </c><c>   4</c></rc>
   </set>
  </array>
  <array name="atomtypes" >
   <dimension dim="1">type</dimension>
   <field type="int">atomspertype</field>
   <field type="string">element</field>
   <field>mass</field>
   <field>valence</field>
   <field type="string">pseudopotential</field>
   <set>
    <rc><c>  30</c><c>C </c><c>     12.01100000</c><c>      4.00000000</c><c>  PAW_PBE C 08Apr2002                   </c></rc>
    <rc><c>  18</c><c>H </c><c>      1.00000000</c><c>      1.00000000</c><c>  PAW_PBE H 15Jun2001                   </c></rc>
    <rc><c>   6</c><c>O </c><c>     16.00000000</c><c>      6.00000000</c><c>  PAW_PBE O 08Apr2002                   </c></rc>
    <rc><c>  12</c><c>N </c><c>     14.00100000</c><c>      5.00000000</c><c>  PAW_PBE N 08Apr2002                   </c></rc>
   </set>
  </array>
 </atominfo>
 <structure name="initialpos" >
  <crystal>
   <varray name="basis" >
    <v>      22.19191845       0.00300481       0.00000000 </v>
    <v>     -11.09333586      19.21518127       0.00000000 </v>
    <v>       0.00000000       0.00000000      20.00000000 </v>
   </varray>
   <i name="volume">   8529.10138270 </i>
   <varray name="rec_basis" >
    <v>       0.04505793       0.02601291       0.00000000 </v>
    <v>      -0.00000705       0.05203812       0.00000000 </v>
    <v>       0.00000000       0.00000000       0.05000000 </v>
   </varray>
  </crystal>
  <varray name="positions" >
   <v>       0.26636874       0.61406251       0.46741150 </v>
   <v>       0.31738745       0.59448201       0.46677310 </v>
   <v>       0.38804713       0.64456309       0.46613227 </v>
   <v>       0.40756904       0.71516560       0.46583376 </v>
   <v>       0.28689782       0.68474078       0.46723200 </v>
   <v>       0.19232432       0.55549106       0.47245674 </v>
   <v>       0.44662118       0.62895299       0.47002418 </v>
   <v>       0.74128494       0.38279756       0.54313280 </v>
   <v>       0.68961521       0.40155233       0.54300405 </v>
   <v>       0.61922745       0.35082070       0.54324327 </v>
   <v>       0.60048219       0.28038872       0.54452152 </v>
   <v>       0.72164088       0.31240092       0.54431378 </v>
   <v>       0.81524235       0.44236071       0.53963912 </v>
   <v>       0.55971721       0.36532226       0.53978432 </v>
   <v>       0.54437680       0.96999003       0.49758151 </v>
   <v>       0.47185658       0.93025407       0.48993114 </v>
   <v>       0.03043954       0.56536136       0.48822893 </v>
   <v>       0.07136812       0.53341618       0.48630286 </v>
   <v>       0.43637138       0.45732696       0.48943625 </v>
   <v>       0.46861503       0.53010872       0.48507980 </v>
   <v>       0.35748145       0.73577890       0.46678160 </v>
   <v>       0.37312221       0.80996964       0.47117327 </v>
   <v>       0.65122922       0.26071278       0.54469680 </v>
   <v>       0.63687198       0.18665528       0.54287970 </v>
   <v>       0.53782917       0.06659200       0.51746924 </v>
   <v>       0.43511912       0.96651233       0.49667742 </v>
   <v>       0.93493075       0.46302744       0.51331263 </v>
   <v>       0.03613963       0.46110577       0.49805783 </v>
   <v>       0.53911407       0.46429501       0.51284017 </v>
   <v>       0.54121291       0.56718764       0.49498341 </v>
   <v>       0.46354943       0.75154422       0.46591054 </v>
   <v>       0.25050861       0.70431091       0.46890809 </v>
   <v>       0.29778075       0.53851057       0.46827604 </v>
   <v>       0.54464386       0.24337886       0.54529997 </v>
   <v>       0.75867383       0.29359347       0.54496559 </v>
   <v>       0.70846635       0.45740964       0.54257981 </v>
   <v>       0.57656827       0.94549431       0.49229250 </v>
   <v>       0.47659414       0.84137535       0.47715747 </v>
   <v>       0.05393972       0.62133694       0.47848448 </v>
   <v>       0.15952524       0.62670226       0.46905596 </v>
   <v>       0.38010176       0.42483598       0.48138812 </v>
   <v>       0.37518403       0.52496436       0.46893088 </v>
   <v>       0.37884237       0.94003689       0.49085118 </v>
   <v>       0.53238765       0.15355713       0.52862346 </v>
   <v>       0.06348000       0.43185168       0.49636925 </v>
   <v>       0.84842489       0.37077323       0.52772076 </v>
   <v>       0.57063558       0.62369190       0.49148800 </v>
   <v>       0.63137996       0.46996296       0.52668439 </v>
   <v>       0.32609401       0.82448595       0.47092668 </v>
   <v>       0.17837362       0.49422504       0.47647475 </v>
   <v>       0.50799325       0.67618696       0.47268216 </v>
   <v>       0.68378121       0.17312948       0.55010697 </v>
   <v>       0.82896841       0.50293008       0.54617996 </v>
   <v>       0.49917758       0.31857024       0.54667322 </v>
   <v>       0.57798473       0.03766372       0.51123123 </v>
   <v>       0.44226450       0.85901952       0.47743360 </v>
   <v>       0.96264935       0.53120535       0.50126800 </v>
   <v>       0.14264970       0.57510915       0.47397577 </v>
   <v>       0.47056291       0.42381596       0.50297965 </v>
   <v>       0.42691853       0.55964377       0.47240440 </v>
   <v>       0.46818435       0.03435924       0.51057659 </v>
   <v>       0.56786186       0.13741060       0.53080256 </v>
   <v>       0.96825753       0.42633587       0.51181827 </v>
   <v>       0.86420144       0.42235024       0.52705568 </v>
   <v>       0.57607764       0.53421936       0.50905668 </v>
   <v>       0.57979207       0.43426645       0.52670802 </v>
  </varray>
 </structure>
 <calculation>
  <scstep>
   <time name="dav">  206.27  208.47</time>
   <time name="total">  206.41  208.62</time>
   <energy>
    <i name="alphaZ">     29.01291684 </i>
    <i name="ewald">  25619.28601141 </i>
    <i name="hartreedc"> -34173.41620026 </i>
    <i name="XCdc">    877.27330437 </i>
    <i name="pawpsdc">  22342.23825270 </i>
    <i name="pawaedc"> -22392.15500121 </i>
    <i name="eentropy">     -0.00000000 </i>
    <i name="bandstr">  -3185.41910256 </i>
    <i name="atom">  10407.76518907 </i>
    <i name="e_fr_energy">   -475.41462964 </i>
    <i name="e_wo_entrp">   -475.41462964 </i>
    <i name="e_0_energy">   -475.41462964 </i>
   </energy>
  </scstep>
  <scstep>
   <time name="dav">  235.67  238.15</time>
   <time name="total">  235.68  238.15</time>
   <energy>
    <i name="e_fr_energy">   -476.01208725 </i>
    <i name="e_wo_entrp">   -476.01208725 </i>
    <i name="e_0_energy">   -476.01208725 </i>
   </energy>
  </scstep>
  <scstep>
   <time name="dav">  262.67  265.46</time>
   <time name="total">  262.68  265.47</time>
   <energy>
    <i name="e_fr_energy">   -476.02894696 </i>
    <i name="e_wo_entrp">   -476.02894696 </i>
    <i name="e_0_energy">   -476.02894696 </i>
   </energy>
  </scstep>
  <scstep>
   <time name="dav">  231.76  234.23</time>
   <time name="total">  231.77  234.23</time>
   <energy>
    <i name="e_fr_energy">   -476.02919847 </i>
    <i name="e_wo_entrp">   -476.02919847 </i>
    <i name="e_0_energy">   -476.02919847 </i>
   </energy>
  </scstep>
  <scstep>
   <time name="dav">  223.37  225.80</time>
   <time name="total">  223.38  225.80</time>
   <energy>
    <i name="e_fr_energy">   -476.02920990 </i>
    <i name="e_wo_entrp">   -476.02920990 </i>
    <i name="e_0_energy">   -476.02920990 </i>
   </energy>
  </scstep>
  <scstep>
   <time name="dav">  182.16  184.19</time>
   <time name="total">  182.16  184.19</time>
   <energy>
    <i name="alphaZ">     29.01291684 </i>
    <i name="ewald">  25619.28601141 </i>
    <i name="hartreedc"> -34173.41620026 </i>
    <i name="XCdc">    877.27330437 </i>
    <i name="pawpsdc">  22342.23825270 </i>
    <i name="pawaedc"> -22392.15500121 </i>
    <i name="eentropy">     -0.00000000 </i>
    <i name="bandstr">  -3186.03368326 </i>
    <i name="atom">  10407.76518907 </i>
    <i name="e_fr_energy">   -476.02921034 </i>
    <i name="e_wo_entrp">   -476.02921034 </i>
    <i name="e_0_energy">   -476.02921034 </i>
   </energy>
  </scstep>
  <structure>
   <crystal>
    <varray name="basis" >
     <v>      22.19191845       0.00300481       0.00000000 </v>
     <v>     -11.09333586      19.21518127       0.00000000 </v>
     <v>       0.00000000       0.00000000      20.00000000 </v>
    </varray>
    <i name="volume">   8529.10138270 </i>
    <varray name="rec_basis" >
     <v>       0.04505793       0.02601291       0.00000000 </v>
     <v>      -0.00000705       0.05203812       0.00000000 </v>
     <v>       0.00000000       0.00000000       0.05000000 </v>
    </varray>
   </crystal>
   <varray name="positions" >
    <v>       0.26636874       0.61406251       0.46741150 </v>
    <v>       0.31738745       0.59448201       0.46677310 </v>
    <v>       0.38804713       0.64456309       0.46613227 </v>
    <v>       0.40756904       0.71516560       0.46583376 </v>
    <v>       0.28689782       0.68474078       0.46723200 </v>
    <v>       0.19232432       0.55549106       0.47245674 </v>
    <v>       0.44662118       0.62895299       0.47002418 </v>
    <v>       0.74128494       0.38279756       0.54313280 </v>
    <v>       0.68961521       0.40155233       0.54300405 </v>
    <v>       0.61922745       0.35082070       0.54324327 </v>
    <v>       0.60048219       0.28038872       0.54452152 </v>
    <v>       0.72164088       0.31240092       0.54431378 </v>
    <v>       0.81524235       0.44236071       0.53963912 </v>
    <v>       0.55971721       0.36532226       0.53978432 </v>
    <v>       0.54437680       0.96999003       0.49758151 </v>
    <v>       0.47185658       0.93025407       0.48993114 </v>
    <v>       0.03043954       0.56536136       0.48822893 </v>
    <v>       0.07136812       0.53341618       0.48630286 </v>
    <v>       0.43637138       0.45732696       0.48943625 </v>
    <v>       0.46861503       0.53010872       0.48507980 </v>
    <v>       0.35748145       0.73577890       0.46678160 </v>
    <v>       0.37312221       0.80996964       0.47117327 </v>
    <v>       0.65122922       0.26071278       0.54469680 </v>
    <v>       0.63687198       0.18665528       0.54287970 </v>
    <v>       0.53782917       0.06659200       0.51746924 </v>
    <v>       0.43511912       0.96651233       0.49667742 </v>
    <v>       0.93493075       0.46302744       0.51331263 </v>
    <v>       0.03613963       0.46110577       0.49805783 </v>
    <v>       0.53911407       0.46429501       0.51284017 </v>
    <v>       0.54121291       0.56718764       0.49498341 </v>
    <v>       0.46354943       0.75154422       0.46591054 </v>
    <v>       0.25050861       0.70431091       0.46890809 </v>
    <v>       0.29778075       0.53851057       0.46827604 </v>
    <v>       0.54464386       0.24337886       0.54529997 </v>
    <v>       0.75867383       0.29359347       0.54496559 </v>
    <v>       0.70846635       0.45740964       0.54257981 </v>
    <v>       0.57656827       0.94549431       0.49229250 </v>
    <v>       0.47659414       0.84137535       0.47715747 </v>
    <v>       0.05393972       0.62133694       0.47848448 </v>
    <v>       0.15952524       0.62670226       0.46905596 </v>
    <v>       0.38010176       0.42483598       0.48138812 </v>
    <v>       0.37518403       0.52496436       0.46893088 </v>
    <v>       0.37884237       0.94003689       0.49085118 </v>
    <v>       0.53238765       0.15355713       0.52862346 </v>
    <v>       0.06348000       0.43185168       0.49636925 </v>
    <v>       0.84842489       0.37077323       0.52772076 </v>
    <v>       0.57063558       0.62369190       0.49148800 </v>
    <v>       0.63137996       0.46996296       0.52668439 </v>
    <v>       0.32609401       0.82448595       0.47092668 </v>
    <v>       0.17837362       0.49422504       0.47647475 </v>
    <v>       0.50799325       0.67618696       0.47268216 </v>
    <v>       0.68378121       0.17312948       0.55010697 </v>
    <v>       0.82896841       0.50293008       0.54617996 </v>
    <v>       0.49917758       0.31857024       0.54667322 </v>
    <v>       0.57798473       0.03766372       0.51123123 </v>
    <v>       0.44226450       0.85901952       0.47743360 </v>
    <v>       0.96264935       0.53120535       0.50126800 </v>
    <v>       0.14264970       0.57510915       0.47397577 </v>
    <v>       0.47056291       0.42381596       0.50297965 </v>
    <v>       0.42691853       0.55964377       0.47240440 </v>
    <v>       0.46818435       0.03435924       0.51057659 </v>
    <v>       0.56786186       0.13741060       0.53080256 </v>
    <v>       0.96825753       0.42633587       0.51181827 </v>
    <v>       0.86420144       0.42235024       0.52705568 </v>
    <v>       0.57607764       0.53421936       0.50905668 </v>
    <v>       0.57979207       0.43426645       0.52670802 </v>
   </varray>
  </structure>
  <varray name="forces" >
   <v>      -0.00230467      -0.00377607       0.00108706 </v>
   <v>      -0.00169756       0.00045756       0.00020733 </v>
   <v>       0.00082459      -0.00004290       0.00139046 </v>
   <v>      -0.00086045       0.00028608       0.00031578 </v>
   <v>      -0.00042646       0.00068889       0.00059896 </v>
   <v>      -0.00248745      -0.00160419      -0.00088871 </v>
   <v>       0.00161452       0.00012436       0.00085649 </v>
   <v>      -0.00293829       0.00269284      -0.00031518 </v>
   <v>      -0.00016667      -0.00020060      -0.00350497 </v>
   <v>      -0.00027723       0.00040526      -0.00144625 </v>
   <v>       0.00127287       0.00047578      -0.00067142 </v>
   <v>      -0.00011410       0.00041672      -0.00090629 </v>
   <v>       0.00506781       0.00122444       0.00121760 </v>
   <v>       0.00050300       0.00152241      -0.00110214 </v>
   <v>       0.00232957      -0.00126606       0.00746361 </v>
   <v>      -0.00298173      -0.00043808      -0.00040239 </v>
   <v>      -0.00148191      -0.00220360      -0.00113471 </v>
   <v>       0.00023728       0.00175079       0.00184817 </v>
   <v>       0.00135388       0.00031104       0.00169371 </v>
   <v>      -0.00167784       0.00139588      -0.00354599 </v>
   <v>      -0.00007016       0.00028165       0.00064141 </v>
   <v>       0.00159452      -0.00016471       0.00030995 </v>
   <v>      -0.00024312      -0.00399271      -0.00069747 </v>
   <v>      -0.00003176      -0.00051247       0.00246253 </v>
   <v>      -0.00058609       0.00157673       0.00544659 </v>
   <v>       0.00062959      -0.00214655       0.00226068 </v>
   <v>      -0.00223697      -0.00006152      -0.00037200 </v>
   <v>      -0.00523977      -0.00054477       0.00087324 </v>
   <v>      -0.00019110      -0.00185551      -0.00140615 </v>
   <v>       0.00186795       0.00031135      -0.00509689 </v>
   <v>       0.00005390      -0.00003620      -0.00057688 </v>
   <v>      -0.00032076       0.00049069       0.00084043 </v>
   <v>      -0.00124034      -0.00148686       0.00124206 </v>
   <v>       0.00003433      -0.00039804      -0.00149940 </v>
   <v>       0.00100941      -0.00093188       0.00070448 </v>
   <v>       0.00036693      -0.00340967       0.00002550 </v>
   <v>      -0.00171609       0.00191397       0.00574695 </v>
   <v>      -0.00063011      -0.00220358      -0.00037577 </v>
   <v>      -0.00041171       0.00181580       0.00102267 </v>
   <v>      -0.00032258      -0.00154522       0.00006434 </v>
   <v>      -0.00007241      -0.00064650       0.00165436 </v>
   <v>      -0.00107377       0.00092695       0.00118596 </v>
   <v>       0.00147067      -0.00016456      -0.00479974 </v>
   <v>       0.00256733       0.00304700      -0.00052514 </v>
   <v>      -0.00061864      -0.00099615      -0.00369424 </v>
   <v>       0.00302790       0.00147366      -0.00058212 </v>
   <v>      -0.00031840      -0.00129207      -0.00154614 </v>
   <v>      -0.00126805      -0.00093052      -0.00791329 </v>
   <v>      -0.00186901       0.00278530      -0.00006638 </v>
   <v>       0.00075993       0.00205355      -0.00120480 </v>
   <v>      -0.00056403      -0.00104796      -0.00113665 </v>
   <v>      -0.00104286       0.00438552      -0.00075124 </v>
   <v>      -0.00173113      -0.00041965       0.00113354 </v>
   <v>       0.00076221      -0.00130745      -0.00075997 </v>
   <v>       0.00261346       0.00153356      -0.00435748 </v>
   <v>       0.00255363       0.00208116       0.00197952 </v>
   <v>      -0.00005492      -0.00029282       0.00203432 </v>
   <v>       0.00297114       0.00014559      -0.00100446 </v>
   <v>      -0.00370560      -0.00517454      -0.00410847 </v>
   <v>      -0.00149756       0.00080571       0.00026932 </v>
   <v>      -0.00199672       0.00325878       0.00013872 </v>
   <v>       0.00268515      -0.00037200       0.00494558 </v>
   <v>      -0.00069188      -0.00105969      -0.00084620 </v>
   <v>       0.00046023      -0.00181830      -0.00193608 </v>
   <v>       0.00446022       0.00283635       0.00323781 </v>
   <v>       0.00406789       0.00086806       0.00427587 </v>
  </varray>
  <varray name="stress" >
   <v>       0.20929384       0.01055748      -0.00017230 </v>
   <v>       0.01055748       0.20280528       0.00631549 </v>
   <v>      -0.00017230       0.00631549      -0.21946567 </v>
  </varray>
  <energy>
   <i name="e_fr_energy">   -477.29116991 </i>
   <i name="e_wo_entrp">   -477.29116991 </i>
   <i name="e_0_energy">     -0.00000000 </i>
  </energy>
  <time name="totalsc"> 1589.11 1606.89</time>
  <eigenvalues>
   <array>
    <dimension dim="1">band</dimension>
    <dimension dim="2">kpoint</dimension>
    <dimension dim="3">spin</dimension>
    <field>eigene</field>
    <field>occ</field>
    <set>
     <set comment="spin 1">
      <set comment="kpoint 1">
       <r>  -26.4788    1.0000 </r>
       <r>  -26.4637    1.0000 </r>
       <r>  -26.4601    1.0000 </r>
       <r>  -26.1249    1.0000 </r>
       <r>  -26.1112    1.0000 </r>
       <r>  -26.1092    1.0000 </r>
       <r>  -25.1706    1.0000 </r>
       <r>  -25.1685    1.0000 </r>
       <r>  -25.1659    1.0000 </r>
       <r>  -24.0869    1.0000 </r>
       <r>  -24.0837    1.0000 </r>
       <r>  -24.0781    1.0000 </r>
       <r>  -23.1329    1.0000 </r>
       <r>  -23.1226    1.0000 </r>
       <r>  -23.1201    1.0000 </r>
       <r>  -22.3457    1.0000 </r>
       <r>  -22.3425    1.0000 </r>
       <r>  -22.3387    1.0000 </r>
       <r>  -22.2964    1.0000 </r>
       <r>  -21.8495    1.0000 </r>
       <r>  -20.1731    1.0000 </r>
       <r>  -20.1705    1.0000 </r>
       <r>  -19.5828    1.0000 </r>
       <r>  -19.5581    1.0000 </r>
       <r>  -19.5573    1.0000 </r>
       <r>  -19.0117    1.0000 </r>
       <r>  -19.0113    1.0000 </r>
       <r>  -17.5476    1.0000 </r>
       <r>  -17.4412    1.0000 </r>
       <r>  -17.4372    1.0000 </r>
       <r>  -16.8049    1.0000 </r>
       <r>  -16.8019    1.0000 </r>
       <r>  -16.8008    1.0000 </r>
       <r>  -16.4182    1.0000 </r>
       <r>  -16.4151    1.0000 </r>
       <r>  -15.9541    1.0000 </r>
       <r>  -15.6776    1.0000 </r>
       <r>  -15.6759    1.0000 </r>
       <r>  -15.1707    1.0000 </r>
       <r>  -15.1704    1.0000 </r>
       <r>  -14.9354    1.0000 </r>
       <r>  -14.8968    1.0000 </r>
       <r>  -14.2849    1.0000 </r>
       <r>  -14.2826    1.0000 </r>
       <r>  -14.0299    1.0000 </r>
       <r>  -13.8693    1.0000 </r>
       <r>  -13.8675    1.0000 </r>
       <r>  -13.5588    1.0000 </r>
       <r>  -13.5541    1.0000 </r>
       <r>  -13.3726    1.0000 </r>
       <r>  -13.3111    1.0000 </r>
       <r>  -12.8542    1.0000 </r>
       <r>  -12.3793    1.0000 </r>
       <r>  -12.3730    1.0000 </r>
       <r>  -12.2584    1.0000 </r>
       <r>  -11.8513    1.0000 </r>
       <r>  -11.7713    1.0000 </r>
       <r>  -11.7683    1.0000 </r>
       <r>  -11.7608    1.0000 </r>
       <r>  -11.6038    1.0000 </r>
       <r>  -11.5956    1.0000 </r>
       <r>  -11.5578    1.0000 </r>
       <r>  -11.4843    1.0000 </r>
       <r>  -11.4442    1.0000 </r>
       <r>  -11.4388    1.0000 </r>
       <r>  -11.2167    1.0000 </r>
       <r>  -10.9645    1.0000 </r>
       <r>  -10.9607    1.0000 </r>
       <r>  -10.8358    1.0000 </r>
       <r>  -10.8342    1.0000 </r>
       <r>  -10.6948    1.0000 </r>
       <r>  -10.5313    1.0000 </r>
       <r>  -10.4921    1.0000 </r>
       <r>  -10.4889    1.0000 </r>
       <r>  -10.3816    1.0000 </r>
       <r>  -10.2172    1.0000 </r>
       <r>  -10.2120    1.0000 </r>
       <r>  -10.1440    1.0000 </r>
       <r>  -10.0537    1.0000 </r>
       <r>  -10.0521    1.0000 </r>
       <r>   -9.9475    1.0000 </r>
       <r>   -9.9464    1.0000 </r>
       <r>   -9.8497    1.0000 </r>
       <r>   -9.6836    1.0000 </r>
       <r>   -9.3472    1.0000 </r>
       <r>   -9.3437    1.0000 </r>
       <r>   -8.9559    1.0000 </r>
       <r>   -8.9169    1.0000 </r>
       <r>   -8.9146    1.0000 </r>
       <r>   -8.7143    1.0000 </r>
       <r>   -8.7106    1.0000 </r>
       <r>   -8.3528    1.0000 </r>
       <r>   -8.0306    1.0000 </r>
       <r>   -8.0271    1.0000 </r>
       <r>   -8.0124    1.0000 </r>
       <r>   -7.7116    1.0000 </r>
       <r>   -7.7080    1.0000 </r>
       <r>   -7.7070    1.0000 </r>
       <r>   -7.3100    1.0000 </r>
       <r>   -7.3064    1.0000 </r>
       <r>   -7.2034    1.0000 </r>
       <r>   -7.1174    1.0000 </r>
       <r>   -7.1152    1.0000 </r>
       <r>   -6.7294    1.0000 </r>
       <r>   -6.7275    1.0000 </r>
       <r>   -6.5940    1.0000 </r>
       <r>   -6.4114    1.0000 </r>
       <r>   -6.4099    1.0000 </r>
       <r>   -6.1231    1.0000 </r>
       <r>   -5.9815    1.0000 </r>
       <r>   -5.9792    1.0000 </r>
       <r>   -5.6646    1.0000 </r>
       <r>   -5.6228    1.0000 </r>
       <r>   -5.6206    1.0000 </r>
       <r>   -5.5985    1.0000 </r>
       <r>   -5.5083    1.0000 </r>
       <r>   -5.4998    1.0000 </r>
       <r>   -3.0343    0.0000 </r>
       <r>   -3.0284    0.0000 </r>
       <r>   -2.5597    0.0000 </r>
       <r>   -2.5567    0.0000 </r>
       <r>   -2.2773    0.0000 </r>
       <r>   -2.2620    0.0000 </r>
       <r>   -2.2594    0.0000 </r>
       <r>   -2.2576    0.0000 </r>
       <r>   -1.4203    0.0000 </r>
       <r>   -1.2296    0.0000 </r>
       <r>   -1.2238    0.0000 </r>
       <r>   -0.7813    0.0000 </r>
       <r>   -0.4545    0.0000 </r>
       <r>   -0.4150    0.0000 </r>
       <r>   -0.4070    0.0000 </r>
       <r>   -0.2453    0.0000 </r>
       <r>    0.0906    0.0000 </r>
       <r>    0.0934    0.0000 </r>
       <r>    0.2098    0.0000 </r>
       <r>    0.2677    0.0000 </r>
       <r>    0.4172    0.0000 </r>
       <r>    0.4194    0.0000 </r>
       <r>    0.5401    0.0000 </r>
       <r>    0.5750    0.0000 </r>
       <r>    0.5836    0.0000 </r>
       <r>    0.5928    0.0000 </r>
       <r>    0.6543    0.0000 </r>
       <r>    0.6562    0.0000 </r>
       <r>    0.6648    0.0000 </r>
       <r>    0.7658    0.0000 </r>
       <r>    0.7691    0.0000 </r>
       <r>    0.8491    0.0000 </r>
       <r>    0.9459    0.0000 </r>
       <r>    0.9510    0.0000 </r>
       <r>    0.9566    0.0000 </r>
       <r>    0.9863    0.0000 </r>
       <r>    0.9896    0.0000 </r>
       <r>    1.0303    0.0000 </r>
       <r>    1.0316    0.0000 </r>
       <r>    1.0353    0.0000 </r>
       <r>    1.0657    0.0000 </r>
       <r>    1.0684    0.0000 </r>
       <r>    1.1036    0.0000 </r>
      </set>
      <set comment="kpoint 2">
       <r>  -26.4788    1.0000 </r>
       <r>  -26.4637    1.0000 </r>
       <r>  -26.4601    1.0000 </r>
       <r>  -26.1249    1.0000 </r>
       <r>  -26.1112    1.0000 </r>
       <r>  -26.1092    1.0000 </r>
       <r>  -25.1706    1.0000 </r>
       <r>  -25.1685    1.0000 </r>
       <r>  -25.1659    1.0000 </r>
       <r>  -24.0869    1.0000 </r>
       <r>  -24.0837    1.0000 </r>
       <r>  -24.0781    1.0000 </r>
       <r>  -23.1329    1.0000 </r>
       <r>  -23.1226    1.0000 </r>
       <r>  -23.1201    1.0000 </r>
       <r>  -22.3457    1.0000 </r>
       <r>  -22.3425    1.0000 </r>
       <r>  -22.3387    1.0000 </r>
       <r>  -22.2964    1.0000 </r>
       <r>  -21.8495    1.0000 </r>
       <r>  -20.1730    1.0000 </r>
       <r>  -20.1703    1.0000 </r>
       <r>  -19.5919    1.0000 </r>
       <r>  -19.5579    1.0000 </r>
       <r>  -19.5482    1.0000 </r>
       <r>  -19.0122    1.0000 </r>
       <r>  -19.0113    1.0000 </r>
       <r>  -17.5474    1.0000 </r>
       <r>  -17.4413    1.0000 </r>
       <r>  -17.4372    1.0000 </r>
       <r>  -16.8049    1.0000 </r>
       <r>  -16.8019    1.0000 </r>
       <r>  -16.8008    1.0000 </r>
       <r>  -16.4180    1.0000 </r>
       <r>  -16.4150    1.0000 </r>
       <r>  -15.9556    1.0000 </r>
       <r>  -15.6772    1.0000 </r>
       <r>  -15.6747    1.0000 </r>
       <r>  -15.1714    1.0000 </r>
       <r>  -15.1704    1.0000 </r>
       <r>  -14.9350    1.0000 </r>
       <r>  -14.8966    1.0000 </r>
       <r>  -14.2850    1.0000 </r>
       <r>  -14.2826    1.0000 </r>
       <r>  -14.0309    1.0000 </r>
       <r>  -13.8686    1.0000 </r>
       <r>  -13.8670    1.0000 </r>
       <r>  -13.5591    1.0000 </r>
       <r>  -13.5542    1.0000 </r>
       <r>  -13.3726    1.0000 </r>
       <r>  -13.3111    1.0000 </r>
       <r>  -12.8538    1.0000 </r>
       <r>  -12.3812    1.0000 </r>
       <r>  -12.3731    1.0000 </r>
       <r>  -12.2565    1.0000 </r>
       <r>  -11.8517    1.0000 </r>
       <r>  -11.7714    1.0000 </r>
       <r>  -11.7682    1.0000 </r>
       <r>  -11.7607    1.0000 </r>
       <r>  -11.6038    1.0000 </r>
       <r>  -11.5956    1.0000 </r>
       <r>  -11.5577    1.0000 </r>
       <r>  -11.4846    1.0000 </r>
       <r>  -11.4445    1.0000 </r>
       <r>  -11.4385    1.0000 </r>
       <r>  -11.2164    1.0000 </r>
       <r>  -10.9646    1.0000 </r>
       <r>  -10.9610    1.0000 </r>
       <r>  -10.8357    1.0000 </r>
       <r>  -10.8342    1.0000 </r>
       <r>  -10.6949    1.0000 </r>
       <r>  -10.5308    1.0000 </r>
       <r>  -10.4919    1.0000 </r>
       <r>  -10.4889    1.0000 </r>
       <r>  -10.3816    1.0000 </r>
       <r>  -10.2172    1.0000 </r>
       <r>  -10.2120    1.0000 </r>
       <r>  -10.1441    1.0000 </r>
       <r>  -10.0541    1.0000 </r>
       <r>  -10.0523    1.0000 </r>
       <r>   -9.9476    1.0000 </r>
       <r>   -9.9466    1.0000 </r>
       <r>   -9.8496    1.0000 </r>
       <r>   -9.6827    1.0000 </r>
       <r>   -9.3472    1.0000 </r>
       <r>   -9.3437    1.0000 </r>
       <r>   -8.9576    1.0000 </r>
       <r>   -8.9166    1.0000 </r>
       <r>   -8.9146    1.0000 </r>
       <r>   -8.7143    1.0000 </r>
       <r>   -8.7093    1.0000 </r>
       <r>   -8.3532    1.0000 </r>
       <r>   -8.0306    1.0000 </r>
       <r>   -8.0271    1.0000 </r>
       <r>   -8.0124    1.0000 </r>
       <r>   -7.7116    1.0000 </r>
       <r>   -7.7080    1.0000 </r>
       <r>   -7.7070    1.0000 </r>
       <r>   -7.3100    1.0000 </r>
       <r>   -7.3063    1.0000 </r>
       <r>   -7.2036    1.0000 </r>
       <r>   -7.1173    1.0000 </r>
       <r>   -7.1152    1.0000 </r>
       <r>   -6.7294    1.0000 </r>
       <r>   -6.7275    1.0000 </r>
       <r>   -6.5940    1.0000 </r>
       <r>   -6.4114    1.0000 </r>
       <r>   -6.4099    1.0000 </r>
       <r>   -6.1230    1.0000 </r>
       <r>   -5.9815    1.0000 </r>
       <r>   -5.9792    1.0000 </r>
       <r>   -5.6646    1.0000 </r>
       <r>   -5.6229    1.0000 </r>
       <r>   -5.6206    1.0000 </r>
       <r>   -5.5984    1.0000 </r>
       <r>   -5.5084    1.0000 </r>
       <r>   -5.4998    1.0000 </r>
       <r>   -3.0342    0.0000 </r>
       <r>   -3.0284    0.0000 </r>
       <r>   -2.5604    0.0000 </r>
       <r>   -2.5570    0.0000 </r>
       <r>   -2.2757    0.0000 </r>
       <r>   -2.2620    0.0000 </r>
       <r>   -2.2594    0.0000 </r>
       <r>   -2.2576    0.0000 </r>
       <r>   -1.4245    0.0000 </r>
       <r>   -1.2256    0.0000 </r>
       <r>   -1.2236    0.0000 </r>
       <r>   -0.7813    0.0000 </r>
       <r>   -0.4552    0.0000 </r>
       <r>   -0.4150    0.0000 </r>
       <r>   -0.4071    0.0000 </r>
       <r>   -0.2453    0.0000 </r>
       <r>    0.0906    0.0000 </r>
       <r>    0.0934    0.0000 </r>
       <r>    0.2100    0.0000 </r>
       <r>    0.2673    0.0000 </r>
       <r>    0.4172    0.0000 </r>
       <r>    0.4203    0.0000 </r>
       <r>    0.5395    0.0000 </r>
       <r>    0.5707    0.0000 </r>
       <r>    0.5873    0.0000 </r>
       <r>    0.5938    0.0000 </r>
       <r>    0.6532    0.0000 </r>
       <r>    0.6559    0.0000 </r>
       <r>    0.6660    0.0000 </r>
       <r>    0.7660    0.0000 </r>
       <r>    0.7676    0.0000 </r>
       <r>    0.8505    0.0000 </r>
       <r>    0.9440    0.0000 </r>
       <r>    0.9516    0.0000 </r>
       <r>    0.9562    0.0000 </r>
       <r>    0.9859    0.0000 </r>
       <r>    0.9892    0.0000 </r>
       <r>    1.0268    0.0000 </r>
       <r>    1.0333    0.0000 </r>
       <r>    1.0377    0.0000 </r>
       <r>    1.0647    0.0000 </r>
       <r>    1.0688    0.0000 </r>
       <r>    1.1053    0.0000 </r>
      </set>
      <set comment="kpoint 3">
       <r>  -26.4788    1.0000 </r>
       <r>  -26.4637    1.0000 </r>
       <r>  -26.4601    1.0000 </r>
       <r>  -26.1249    1.0000 </r>
       <r>  -26.1112    1.0000 </r>
       <r>  -26.1092    1.0000 </r>
       <r>  -25.1706    1.0000 </r>
       <r>  -25.1685    1.0000 </r>
       <r>  -25.1659    1.0000 </r>
       <r>  -24.0869    1.0000 </r>
       <r>  -24.0837    1.0000 </r>
       <r>  -24.0781    1.0000 </r>
       <r>  -23.1329    1.0000 </r>
       <r>  -23.1226    1.0000 </r>
       <r>  -23.1201    1.0000 </r>
       <r>  -22.3457    1.0000 </r>
       <r>  -22.3425    1.0000 </r>
       <r>  -22.3387    1.0000 </r>
       <r>  -22.2964    1.0000 </r>
       <r>  -21.8496    1.0000 </r>
       <r>  -20.1729    1.0000 </r>
       <r>  -20.1699    1.0000 </r>
       <r>  -19.6074    1.0000 </r>
       <r>  -19.5579    1.0000 </r>
       <r>  -19.5318    1.0000 </r>
       <r>  -19.0137    1.0000 </r>
       <r>  -19.0113    1.0000 </r>
       <r>  -17.5470    1.0000 </r>
       <r>  -17.4414    1.0000 </r>
       <r>  -17.4373    1.0000 </r>
       <r>  -16.8049    1.0000 </r>
       <r>  -16.8019    1.0000 </r>
       <r>  -16.8007    1.0000 </r>
       <r>  -16.4174    1.0000 </r>
       <r>  -16.4148    1.0000 </r>
       <r>  -15.9600    1.0000 </r>
       <r>  -15.6771    1.0000 </r>
       <r>  -15.6702    1.0000 </r>
       <r>  -15.1737    1.0000 </r>
       <r>  -15.1702    1.0000 </r>
       <r>  -14.9341    1.0000 </r>
       <r>  -14.8960    1.0000 </r>
       <r>  -14.2854    1.0000 </r>
       <r>  -14.2828    1.0000 </r>
       <r>  -14.0338    1.0000 </r>
       <r>  -13.8680    1.0000 </r>
       <r>  -13.8640    1.0000 </r>
       <r>  -13.5600    1.0000 </r>
       <r>  -13.5543    1.0000 </r>
       <r>  -13.3725    1.0000 </r>
       <r>  -13.3111    1.0000 </r>
       <r>  -12.8526    1.0000 </r>
       <r>  -12.3865    1.0000 </r>
       <r>  -12.3733    1.0000 </r>
       <r>  -12.2514    1.0000 </r>
       <r>  -11.8528    1.0000 </r>
       <r>  -11.7716    1.0000 </r>
       <r>  -11.7679    1.0000 </r>
       <r>  -11.7604    1.0000 </r>
       <r>  -11.6037    1.0000 </r>
       <r>  -11.5955    1.0000 </r>
       <r>  -11.5575    1.0000 </r>
       <r>  -11.4852    1.0000 </r>
       <r>  -11.4452    1.0000 </r>
       <r>  -11.4378    1.0000 </r>
       <r>  -11.2157    1.0000 </r>
       <r>  -10.9649    1.0000 </r>
       <r>  -10.9620    1.0000 </r>
       <r>  -10.8352    1.0000 </r>
       <r>  -10.8342    1.0000 </r>
       <r>  -10.6952    1.0000 </r>
       <r>  -10.5296    1.0000 </r>
       <r>  -10.4915    1.0000 </r>
       <r>  -10.4888    1.0000 </r>
       <r>  -10.3818    1.0000 </r>
       <r>  -10.2171    1.0000 </r>
       <r>  -10.2120    1.0000 </r>
       <r>  -10.1445    1.0000 </r>
       <r>  -10.0559    1.0000 </r>
       <r>  -10.0524    1.0000 </r>
       <r>   -9.9478    1.0000 </r>
       <r>   -9.9471    1.0000 </r>
       <r>   -9.8494    1.0000 </r>
       <r>   -9.6799    1.0000 </r>
       <r>   -9.3472    1.0000 </r>
       <r>   -9.3437    1.0000 </r>
       <r>   -8.9623    1.0000 </r>
       <r>   -8.9159    1.0000 </r>
       <r>   -8.9143    1.0000 </r>
       <r>   -8.7143    1.0000 </r>
       <r>   -8.7056    1.0000 </r>
       <r>   -8.3542    1.0000 </r>
       <r>   -8.0306    1.0000 </r>
       <r>   -8.0271    1.0000 </r>
       <r>   -8.0125    1.0000 </r>
       <r>   -7.7116    1.0000 </r>
       <r>   -7.7080    1.0000 </r>
       <r>   -7.7070    1.0000 </r>
       <r>   -7.3099    1.0000 </r>
       <r>   -7.3059    1.0000 </r>
       <r>   -7.2043    1.0000 </r>
       <r>   -7.1170    1.0000 </r>
       <r>   -7.1152    1.0000 </r>
       <r>   -6.7294    1.0000 </r>
       <r>   -6.7275    1.0000 </r>
       <r>   -6.5939    1.0000 </r>
       <r>   -6.4115    1.0000 </r>
       <r>   -6.4099    1.0000 </r>
       <r>   -6.1228    1.0000 </r>
       <r>   -5.9815    1.0000 </r>
       <r>   -5.9795    1.0000 </r>
       <r>   -5.6644    1.0000 </r>
       <r>   -5.6231    1.0000 </r>
       <r>   -5.6206    1.0000 </r>
       <r>   -5.5981    1.0000 </r>
       <r>   -5.5085    1.0000 </r>
       <r>   -5.4998    1.0000 </r>
       <r>   -3.0339    0.0000 </r>
       <r>   -3.0283    0.0000 </r>
       <r>   -2.5632    0.0000 </r>
       <r>   -2.5575    0.0000 </r>
       <r>   -2.2709    0.0000 </r>
       <r>   -2.2619    0.0000 </r>
       <r>   -2.2594    0.0000 </r>
       <r>   -2.2576    0.0000 </r>
       <r>   -1.4363    0.0000 </r>
       <r>   -1.2239    0.0000 </r>
       <r>   -1.2138    0.0000 </r>
       <r>   -0.7813    0.0000 </r>
       <r>   -0.4573    0.0000 </r>
       <r>   -0.4151    0.0000 </r>
       <r>   -0.4073    0.0000 </r>
       <r>   -0.2453    0.0000 </r>
       <r>    0.0908    0.0000 </r>
       <r>    0.0934    0.0000 </r>
       <r>    0.2107    0.0000 </r>
       <r>    0.2662    0.0000 </r>
       <r>    0.4172    0.0000 </r>
       <r>    0.4228    0.0000 </r>
       <r>    0.5377    0.0000 </r>
       <r>    0.5646    0.0000 </r>
       <r>    0.5894    0.0000 </r>
       <r>    0.5991    0.0000 </r>
       <r>    0.6508    0.0000 </r>
       <r>    0.6550    0.0000 </r>
       <r>    0.6687    0.0000 </r>
       <r>    0.7629    0.0000 </r>
       <r>    0.7669    0.0000 </r>
       <r>    0.8543    0.0000 </r>
       <r>    0.9398    0.0000 </r>
       <r>    0.9514    0.0000 </r>
       <r>    0.9555    0.0000 </r>
       <r>    0.9842    0.0000 </r>
       <r>    0.9887    0.0000 </r>
       <r>    1.0236    0.0000 </r>
       <r>    1.0316    0.0000 </r>
       <r>    1.0437    0.0000 </r>
       <r>    1.0629    0.0000 </r>
       <r>    1.0702    0.0000 </r>
       <r>    1.1096    0.0000 </r>
      </set>
      <set comment="kpoint 4">
       <r>  -26.4788    1.0000 </r>
       <r>  -26.4637    1.0000 </r>
       <r>  -26.4601    1.0000 </r>
       <r>  -26.1249    1.0000 </r>
       <r>  -26.1112    1.0000 </r>
       <r>  -26.1092    1.0000 </r>
       <r>  -25.1706    1.0000 </r>
       <r>  -25.1685    1.0000 </r>
       <r>  -25.1659    1.0000 </r>
       <r>  -24.0869    1.0000 </r>
       <r>  -24.0837    1.0000 </r>
       <r>  -24.0781    1.0000 </r>
       <r>  -23.1328    1.0000 </r>
       <r>  -23.1227    1.0000 </r>
       <r>  -23.1201    1.0000 </r>
       <r>  -22.3457    1.0000 </r>
       <r>  -22.3425    1.0000 </r>
       <r>  -22.3387    1.0000 </r>
       <r>  -22.2964    1.0000 </r>
       <r>  -21.8496    1.0000 </r>
       <r>  -20.1727    1.0000 </r>
       <r>  -20.1691    1.0000 </r>
       <r>  -19.6237    1.0000 </r>
       <r>  -19.5579    1.0000 </r>
       <r>  -19.5142    1.0000 </r>
       <r>  -19.0163    1.0000 </r>
       <r>  -19.0113    1.0000 </r>
       <r>  -17.5463    1.0000 </r>
       <r>  -17.4416    1.0000 </r>
       <r>  -17.4374    1.0000 </r>
       <r>  -16.8050    1.0000 </r>
       <r>  -16.8020    1.0000 </r>
       <r>  -16.8006    1.0000 </r>
       <r>  -16.4166    1.0000 </r>
       <r>  -16.4140    1.0000 </r>
       <r>  -15.9669    1.0000 </r>
       <r>  -15.6772    1.0000 </r>
       <r>  -15.6628    1.0000 </r>
       <r>  -15.1775    1.0000 </r>
       <r>  -15.1700    1.0000 </r>
       <r>  -14.9325    1.0000 </r>
       <r>  -14.8951    1.0000 </r>
       <r>  -14.2861    1.0000 </r>
       <r>  -14.2831    1.0000 </r>
       <r>  -14.0383    1.0000 </r>
       <r>  -13.8676    1.0000 </r>
       <r>  -13.8586    1.0000 </r>
       <r>  -13.5615    1.0000 </r>
       <r>  -13.5544    1.0000 </r>
       <r>  -13.3723    1.0000 </r>
       <r>  -13.3112    1.0000 </r>
       <r>  -12.8506    1.0000 </r>
       <r>  -12.3946    1.0000 </r>
       <r>  -12.3735    1.0000 </r>
       <r>  -12.2437    1.0000 </r>
       <r>  -11.8546    1.0000 </r>
       <r>  -11.7719    1.0000 </r>
       <r>  -11.7674    1.0000 </r>
       <r>  -11.7600    1.0000 </r>
       <r>  -11.6035    1.0000 </r>
       <r>  -11.5953    1.0000 </r>
       <r>  -11.5571    1.0000 </r>
       <r>  -11.4863    1.0000 </r>
       <r>  -11.4461    1.0000 </r>
       <r>  -11.4370    1.0000 </r>
       <r>  -11.2144    1.0000 </r>
       <r>  -10.9659    1.0000 </r>
       <r>  -10.9631    1.0000 </r>
       <r>  -10.8345    1.0000 </r>
       <r>  -10.8342    1.0000 </r>
       <r>  -10.6957    1.0000 </r>
       <r>  -10.5275    1.0000 </r>
       <r>  -10.4908    1.0000 </r>
       <r>  -10.4888    1.0000 </r>
       <r>  -10.3821    1.0000 </r>
       <r>  -10.2171    1.0000 </r>
       <r>  -10.2119    1.0000 </r>
       <r>  -10.1450    1.0000 </r>
       <r>  -10.0589    1.0000 </r>
       <r>  -10.0525    1.0000 </r>
       <r>   -9.9486    1.0000 </r>
       <r>   -9.9473    1.0000 </r>
       <r>   -9.8490    1.0000 </r>
       <r>   -9.6755    1.0000 </r>
       <r>   -9.3472    1.0000 </r>
       <r>   -9.3437    1.0000 </r>
       <r>   -8.9695    1.0000 </r>
       <r>   -8.9154    1.0000 </r>
       <r>   -8.9138    1.0000 </r>
       <r>   -8.7142    1.0000 </r>
       <r>   -8.6995    1.0000 </r>
       <r>   -8.3559    1.0000 </r>
       <r>   -8.0306    1.0000 </r>
       <r>   -8.0271    1.0000 </r>
       <r>   -8.0127    1.0000 </r>
       <r>   -7.7116    1.0000 </r>
       <r>   -7.7080    1.0000 </r>
       <r>   -7.7070    1.0000 </r>
       <r>   -7.3099    1.0000 </r>
       <r>   -7.3052    1.0000 </r>
       <r>   -7.2054    1.0000 </r>
       <r>   -7.1164    1.0000 </r>
       <r>   -7.1152    1.0000 </r>
       <r>   -6.7294    1.0000 </r>
       <r>   -6.7276    1.0000 </r>
       <r>   -6.5939    1.0000 </r>
       <r>   -6.4116    1.0000 </r>
       <r>   -6.4099    1.0000 </r>
       <r>   -6.1225    1.0000 </r>
       <r>   -5.9815    1.0000 </r>
       <r>   -5.9798    1.0000 </r>
       <r>   -5.6640    1.0000 </r>
       <r>   -5.6235    1.0000 </r>
       <r>   -5.6207    1.0000 </r>
       <r>   -5.5977    1.0000 </r>
       <r>   -5.5088    1.0000 </r>
       <r>   -5.4998    1.0000 </r>
       <r>   -3.0333    0.0000 </r>
       <r>   -3.0282    0.0000 </r>
       <r>   -2.5682    0.0000 </r>
       <r>   -2.5577    0.0000 </r>
       <r>   -2.2638    0.0000 </r>
       <r>   -2.2613    0.0000 </r>
       <r>   -2.2593    0.0000 </r>
       <r>   -2.2575    0.0000 </r>
       <r>   -1.4536    0.0000 </r>
       <r>   -1.2239    0.0000 </r>
       <r>   -1.1970    0.0000 </r>
       <r>   -0.7812    0.0000 </r>
       <r>   -0.4607    0.0000 </r>
       <r>   -0.4153    0.0000 </r>
       <r>   -0.4076    0.0000 </r>
       <r>   -0.2452    0.0000 </r>
       <r>    0.0910    0.0000 </r>
       <r>    0.0933    0.0000 </r>
       <r>    0.2119    0.0000 </r>
       <r>    0.2644    0.0000 </r>
       <r>    0.4172    0.0000 </r>
       <r>    0.4268    0.0000 </r>
       <r>    0.5344    0.0000 </r>
       <r>    0.5596    0.0000 </r>
       <r>    0.5891    0.0000 </r>
       <r>    0.6068    0.0000 </r>
       <r>    0.6481    0.0000 </r>
       <r>    0.6536    0.0000 </r>
       <r>    0.6721    0.0000 </r>
       <r>    0.7568    0.0000 </r>
       <r>    0.7682    0.0000 </r>
       <r>    0.8594    0.0000 </r>
       <r>    0.9346    0.0000 </r>
       <r>    0.9494    0.0000 </r>
       <r>    0.9544    0.0000 </r>
       <r>    0.9817    0.0000 </r>
       <r>    0.9887    0.0000 </r>
       <r>    1.0210    0.0000 </r>
       <r>    1.0287    0.0000 </r>
       <r>    1.0494    0.0000 </r>
       <r>    1.0621    0.0000 </r>
       <r>    1.0733    0.0000 </r>
       <r>    1.1151    0.0000 </r>
      </set>
      <set comment="kpoint 5">
       <r>  -26.4788    1.0000 </r>
       <r>  -26.4637    1.0000 </r>
       <r>  -26.4601    1.0000 </r>
       <r>  -26.1249    1.0000 </r>
       <r>  -26.1112    1.0000 </r>
       <r>  -26.1092    1.0000 </r>
       <r>  -25.1706    1.0000 </r>
       <r>  -25.1685    1.0000 </r>
       <r>  -25.1659    1.0000 </r>
       <r>  -24.0869    1.0000 </r>
       <r>  -24.0837    1.0000 </r>
       <r>  -24.0782    1.0000 </r>
       <r>  -23.1327    1.0000 </r>
       <r>  -23.1227    1.0000 </r>
       <r>  -23.1202    1.0000 </r>
       <r>  -22.3457    1.0000 </r>
       <r>  -22.3425    1.0000 </r>
       <r>  -22.3387    1.0000 </r>
       <r>  -22.2963    1.0000 </r>
       <r>  -21.8497    1.0000 </r>
       <r>  -20.1725    1.0000 </r>
       <r>  -20.1679    1.0000 </r>
       <r>  -19.6400    1.0000 </r>
       <r>  -19.5579    1.0000 </r>
       <r>  -19.4961    1.0000 </r>
       <r>  -19.0199    1.0000 </r>
       <r>  -19.0113    1.0000 </r>
       <r>  -17.5454    1.0000 </r>
       <r>  -17.4418    1.0000 </r>
       <r>  -17.4375    1.0000 </r>
       <r>  -16.8050    1.0000 </r>
       <r>  -16.8020    1.0000 </r>
       <r>  -16.8005    1.0000 </r>
       <r>  -16.4161    1.0000 </r>
       <r>  -16.4124    1.0000 </r>
       <r>  -15.9759    1.0000 </r>
       <r>  -15.6774    1.0000 </r>
       <r>  -15.6529    1.0000 </r>
       <r>  -15.1826    1.0000 </r>
       <r>  -15.1697    1.0000 </r>
       <r>  -14.9305    1.0000 </r>
       <r>  -14.8937    1.0000 </r>
       <r>  -14.2870    1.0000 </r>
       <r>  -14.2835    1.0000 </r>
       <r>  -14.0440    1.0000 </r>
       <r>  -13.8673    1.0000 </r>
       <r>  -13.8515    1.0000 </r>
       <r>  -13.5637    1.0000 </r>
       <r>  -13.5545    1.0000 </r>
       <r>  -13.3721    1.0000 </r>
       <r>  -13.3112    1.0000 </r>
       <r>  -12.8478    1.0000 </r>
       <r>  -12.4046    1.0000 </r>
       <r>  -12.3737    1.0000 </r>
       <r>  -12.2343    1.0000 </r>
       <r>  -11.8570    1.0000 </r>
       <r>  -11.7723    1.0000 </r>
       <r>  -11.7668    1.0000 </r>
       <r>  -11.7595    1.0000 </r>
       <r>  -11.6033    1.0000 </r>
       <r>  -11.5952    1.0000 </r>
       <r>  -11.5565    1.0000 </r>
       <r>  -11.4877    1.0000 </r>
       <r>  -11.4470    1.0000 </r>
       <r>  -11.4361    1.0000 </r>
       <r>  -11.2127    1.0000 </r>
       <r>  -10.9682    1.0000 </r>
       <r>  -10.9637    1.0000 </r>
       <r>  -10.8342    1.0000 </r>
       <r>  -10.8334    1.0000 </r>
       <r>  -10.6964    1.0000 </r>
       <r>  -10.5246    1.0000 </r>
       <r>  -10.4900    1.0000 </r>
       <r>  -10.4885    1.0000 </r>
       <r>  -10.3824    1.0000 </r>
       <r>  -10.2171    1.0000 </r>
       <r>  -10.2119    1.0000 </r>
       <r>  -10.1459    1.0000 </r>
       <r>  -10.0632    1.0000 </r>
       <r>  -10.0524    1.0000 </r>
       <r>   -9.9498    1.0000 </r>
       <r>   -9.9474    1.0000 </r>
       <r>   -9.8486    1.0000 </r>
       <r>   -9.6695    1.0000 </r>
       <r>   -9.3472    1.0000 </r>
       <r>   -9.3437    1.0000 </r>
       <r>   -8.9786    1.0000 </r>
       <r>   -8.9152    1.0000 </r>
       <r>   -8.9129    1.0000 </r>
       <r>   -8.7142    1.0000 </r>
       <r>   -8.6915    1.0000 </r>
       <r>   -8.3583    1.0000 </r>
       <r>   -8.0305    1.0000 </r>
       <r>   -8.0271    1.0000 </r>
       <r>   -8.0129    1.0000 </r>
       <r>   -7.7116    1.0000 </r>
       <r>   -7.7080    1.0000 </r>
       <r>   -7.7070    1.0000 </r>
       <r>   -7.3098    1.0000 </r>
       <r>   -7.3043    1.0000 </r>
       <r>   -7.2069    1.0000 </r>
       <r>   -7.1157    1.0000 </r>
       <r>   -7.1152    1.0000 </r>
       <r>   -6.7294    1.0000 </r>
       <r>   -6.7276    1.0000 </r>
       <r>   -6.5938    1.0000 </r>
       <r>   -6.4118    1.0000 </r>
       <r>   -6.4099    1.0000 </r>
       <r>   -6.1220    1.0000 </r>
       <r>   -5.9816    1.0000 </r>
       <r>   -5.9803    1.0000 </r>
       <r>   -5.6636    1.0000 </r>
       <r>   -5.6240    1.0000 </r>
       <r>   -5.6207    1.0000 </r>
       <r>   -5.5971    1.0000 </r>
       <r>   -5.5091    1.0000 </r>
       <r>   -5.4998    1.0000 </r>
       <r>   -3.0326    0.0000 </r>
       <r>   -3.0281    0.0000 </r>
       <r>   -2.5748    0.0000 </r>
       <r>   -2.5578    0.0000 </r>
       <r>   -2.2622    0.0000 </r>
       <r>   -2.2595    0.0000 </r>
       <r>   -2.2576    0.0000 </r>
       <r>   -2.2521    0.0000 </r>
       <r>   -1.4743    0.0000 </r>
       <r>   -1.2239    0.0000 </r>
       <r>   -1.1769    0.0000 </r>
       <r>   -0.7812    0.0000 </r>
       <r>   -0.4655    0.0000 </r>
       <r>   -0.4156    0.0000 </r>
       <r>   -0.4079    0.0000 </r>
       <r>   -0.2452    0.0000 </r>
       <r>    0.0914    0.0000 </r>
       <r>    0.0932    0.0000 </r>
       <r>    0.2136    0.0000 </r>
       <r>    0.2622    0.0000 </r>
       <r>    0.4172    0.0000 </r>
       <r>    0.4321    0.0000 </r>
       <r>    0.5296    0.0000 </r>
       <r>    0.5559    0.0000 </r>
       <r>    0.5884    0.0000 </r>
       <r>    0.6141    0.0000 </r>
       <r>    0.6457    0.0000 </r>
       <r>    0.6520    0.0000 </r>
       <r>    0.6759    0.0000 </r>
       <r>    0.7497    0.0000 </r>
       <r>    0.7698    0.0000 </r>
       <r>    0.8647    0.0000 </r>
       <r>    0.9290    0.0000 </r>
       <r>    0.9465    0.0000 </r>
       <r>    0.9522    0.0000 </r>
       <r>    0.9790    0.0000 </r>
       <r>    0.9889    0.0000 </r>
       <r>    1.0179    0.0000 </r>
       <r>    1.0267    0.0000 </r>
       <r>    1.0518    0.0000 </r>
       <r>    1.0647    0.0000 </r>
       <r>    1.0779    0.0000 </r>
       <r>    1.1205    0.0000 </r>
      </set>
      <set comment="kpoint 6">
       <r>  -26.4788    1.0000 </r>
       <r>  -26.4637    1.0000 </r>
       <r>  -26.4601    1.0000 </r>
       <r>  -26.1249    1.0000 </r>
       <r>  -26.1112    1.0000 </r>
       <r>  -26.1092    1.0000 </r>
       <r>  -25.1706    1.0000 </r>
       <r>  -25.1685    1.0000 </r>
       <r>  -25.1659    1.0000 </r>
       <r>  -24.0869    1.0000 </r>
       <r>  -24.0837    1.0000 </r>
       <r>  -24.0782    1.0000 </r>
       <r>  -23.1326    1.0000 </r>
       <r>  -23.1228    1.0000 </r>
       <r>  -23.1202    1.0000 </r>
       <r>  -22.3457    1.0000 </r>
       <r>  -22.3425    1.0000 </r>
       <r>  -22.3387    1.0000 </r>
       <r>  -22.2962    1.0000 </r>
       <r>  -21.8498    1.0000 </r>
       <r>  -20.1724    1.0000 </r>
       <r>  -20.1663    1.0000 </r>
       <r>  -19.6558    1.0000 </r>
       <r>  -19.5579    1.0000 </r>
       <r>  -19.4778    1.0000 </r>
       <r>  -19.0245    1.0000 </r>
       <r>  -19.0113    1.0000 </r>
       <r>  -17.5442    1.0000 </r>
       <r>  -17.4422    1.0000 </r>
       <r>  -17.4377    1.0000 </r>
       <r>  -16.8051    1.0000 </r>
       <r>  -16.8021    1.0000 </r>
       <r>  -16.8004    1.0000 </r>
       <r>  -16.4159    1.0000 </r>
       <r>  -16.4101    1.0000 </r>
       <r>  -15.9866    1.0000 </r>
       <r>  -15.6776    1.0000 </r>
       <r>  -15.6411    1.0000 </r>
       <r>  -15.1890    1.0000 </r>
       <r>  -15.1694    1.0000 </r>
       <r>  -14.9283    1.0000 </r>
       <r>  -14.8920    1.0000 </r>
       <r>  -14.2881    1.0000 </r>
       <r>  -14.2840    1.0000 </r>
       <r>  -14.0505    1.0000 </r>
       <r>  -13.8668    1.0000 </r>
       <r>  -13.8432    1.0000 </r>
       <r>  -13.5665    1.0000 </r>
       <r>  -13.5546    1.0000 </r>
       <r>  -13.3718    1.0000 </r>
       <r>  -13.3113    1.0000 </r>
       <r>  -12.8444    1.0000 </r>
       <r>  -12.4159    1.0000 </r>
       <r>  -12.3739    1.0000 </r>
       <r>  -12.2239    1.0000 </r>
       <r>  -11.8600    1.0000 </r>
       <r>  -11.7727    1.0000 </r>
       <r>  -11.7662    1.0000 </r>
       <r>  -11.7588    1.0000 </r>
       <r>  -11.6029    1.0000 </r>
       <r>  -11.5950    1.0000 </r>
       <r>  -11.5558    1.0000 </r>
       <r>  -11.4894    1.0000 </r>
       <r>  -11.4480    1.0000 </r>
       <r>  -11.4353    1.0000 </r>
       <r>  -11.2105    1.0000 </r>
       <r>  -10.9715    1.0000 </r>
       <r>  -10.9640    1.0000 </r>
[...]
   <v name="MAGDIPOLOUT">      0.00000000      0.00000000      0.00000000</v>
  </separator>
  <dos>
   <i name="efermi">     -5.39627552 </i>
   <total>
    <array>
     <dimension dim="1">gridpoints</dimension>
     <dimension dim="2">spin</dimension>
     <field>energy</field>
     <field>total</field>
     <field>integrated</field>
     <set>
      <set comment="spin 1">
       <r>   -27.8635     0.0000     0.0000 </r>
       <r>   -27.7620     0.0000     0.0000 </r>
       <r>   -27.6605     0.0000     0.0000 </r>
       <r>   -27.5589     0.0000     0.0000 </r>
       <r>   -27.4574     0.0000     0.0000 </r>
       <r>   -27.3558     0.0000     0.0000 </r>
       <r>   -27.2543     0.0000     0.0000 </r>
       <r>   -27.1527     0.0000     0.0000 </r>
       <r>   -27.0512     0.0000     0.0000 </r>
       <r>   -26.9496     0.0000     0.0000 </r>
       <r>   -26.8481     0.0000     0.0000 </r>
       <r>   -26.7465     0.0000     0.0000 </r>
       <r>   -26.6450     0.0000     0.0000 </r>
       <r>   -26.5434     0.0000     0.0000 </r>
       <r>   -26.4419    58.9672     5.9879 </r>
       <r>   -26.3403     0.0000     6.0000 </r>
       <r>   -26.2388     0.0000     6.0000 </r>
       <r>   -26.1372     0.7798     6.0792 </r>
       <r>   -26.0357    39.3876    12.0000 </r>
       <r>   -25.9342     0.0000    12.0000 </r>
       <r>   -25.8326     0.0000    12.0000 </r>
       <r>   -25.7311     0.0000    12.0000 </r>
       <r>   -25.6295     0.0000    12.0000 </r>
       <r>   -25.5280     0.0000    12.0000 </r>
       <r>   -25.4264     0.0000    12.0000 </r>
       <r>   -25.3249     0.0000    12.0000 </r>
       <r>   -25.2233     0.0000    12.0000 </r>
       <r>   -25.1218    59.0860    18.0000 </r>
       <r>   -25.0202     0.0000    18.0000 </r>
       <r>   -24.9187     0.0000    18.0000 </r>
       <r>   -24.8171     0.0000    18.0000 </r>
       <r>   -24.7156     0.0000    18.0000 </r>
       <r>   -24.6140     0.0000    18.0000 </r>
       <r>   -24.5125     0.0000    18.0000 </r>
       <r>   -24.4109     0.0000    18.0000 </r>
       <r>   -24.3094     0.0000    18.0000 </r>
       <r>   -24.2079     0.0000    18.0000 </r>
       <r>   -24.1063     0.0706    18.0072 </r>
       <r>   -24.0048    39.3767    24.0000 </r>
       <r>   -23.9032     0.0000    24.0000 </r>
       <r>   -23.8017     0.0000    24.0000 </r>
       <r>   -23.7001     0.0000    24.0000 </r>
       <r>   -23.5986     0.0000    24.0000 </r>
       <r>   -23.4970     0.0000    24.0000 </r>
       <r>   -23.3955     0.0000    24.0000 </r>
       <r>   -23.2939     0.0000    24.0000 </r>
       <r>   -23.1924     0.0000    24.0000 </r>
       <r>   -23.0908    59.0857    30.0000 </r>
       <r>   -22.9893     0.0000    30.0000 </r>
       <r>   -22.8877     0.0000    30.0000 </r>
       <r>   -22.7862     0.0000    30.0000 </r>
       <r>   -22.6846     0.0000    30.0000 </r>
       <r>   -22.5831     0.0000    30.0000 </r>
       <r>   -22.4816     0.0000    30.0000 </r>
       <r>   -22.3800     0.0000    30.0000 </r>
       <r>   -22.2785    78.6195    37.9836 </r>
       <r>   -22.1769     0.0000    38.0000 </r>
       <r>   -22.0754     0.0000    38.0000 </r>
       <r>   -21.9738     0.0000    38.0000 </r>
       <r>   -21.8723     0.0244    38.0025 </r>
       <r>   -21.7707     7.5437    40.0000 </r>
       <r>   -21.6692     0.0000    40.0000 </r>
       <r>   -21.5676     0.0000    40.0000 </r>
       <r>   -21.4661     0.0000    40.0000 </r>
       <r>   -21.3645     0.0000    40.0000 </r>
       <r>   -21.2630     0.0000    40.0000 </r>
       <r>   -21.1614     0.0000    40.0000 </r>
       <r>   -21.0599     0.0000    40.0000 </r>
       <r>   -20.9584     0.0000    40.0000 </r>
       <r>   -20.8568     0.0000    40.0000 </r>
       <r>   -20.7553     0.0000    40.0000 </r>
       <r>   -20.6537     0.0000    40.0000 </r>
       <r>   -20.5522     0.0000    40.0000 </r>
       <r>   -20.4506     0.0000    40.0000 </r>
       <r>   -20.3491     0.0000    40.0000 </r>
       <r>   -20.2475     0.0000    40.0000 </r>
       <r>   -20.1460    28.6127    42.9055 </r>
       <r>   -20.0444     0.0000    44.0000 </r>
       <r>   -19.9429     0.0000    44.0000 </r>
       <r>   -19.8413     0.0000    44.0000 </r>
       <r>   -19.7398    12.5061    45.2700 </r>
       <r>   -19.6382     3.5183    45.7240 </r>
       <r>   -19.5367    23.0030    48.1359 </r>
       <r>   -19.4351     2.8565    48.4901 </r>
       <r>   -19.3336     2.8070    48.8517 </r>
       <r>   -19.2321     9.0505    49.8524 </r>
       <r>   -19.1305     7.3940    50.7508 </r>
       <r>   -19.0290     5.8404    51.6264 </r>
       <r>   -18.9274     0.0000    54.0000 </r>
       <r>   -18.8259     0.0000    54.0000 </r>
       <r>   -18.7243     0.0000    54.0000 </r>
       <r>   -18.6228     0.0000    54.0000 </r>
       <r>   -18.5212     0.0000    54.0000 </r>
       <r>   -18.4197     0.0000    54.0000 </r>
       <r>   -18.3181     0.0000    54.0000 </r>
       <r>   -18.2166     0.0000    54.0000 </r>
       <r>   -18.1150     0.0000    54.0000 </r>
       <r>   -18.0135     0.0000    54.0000 </r>
       <r>   -17.9119     0.0000    54.0000 </r>
       <r>   -17.8104     0.0000    54.0000 </r>
       <r>   -17.7088     0.0000    54.0000 </r>
       <r>   -17.6073     0.0000    54.0000 </r>
       <r>   -17.5058    19.6003    55.9904 </r>
       <r>   -17.4042    39.3906    60.0000 </r>
       <r>   -17.3027     0.0000    60.0000 </r>
       <r>   -17.2011     0.0000    60.0000 </r>
       <r>   -17.0996     0.0000    60.0000 </r>
       <r>   -16.9980     0.0000    60.0000 </r>
       <r>   -16.8965     0.0000    60.0000 </r>
       <r>   -16.7949    49.7558    65.0526 </r>
       <r>   -16.6934     0.0000    66.0000 </r>
       <r>   -16.5918     0.0000    66.0000 </r>
       <r>   -16.4903     0.0000    66.0000 </r>
       <r>   -16.3887    26.3206    68.6728 </r>
       <r>   -16.2872    10.1756    70.0000 </r>
       <r>   -16.1856     0.0000    70.0000 </r>
       <r>   -16.0841    11.5721    71.1751 </r>
       <r>   -15.9825     3.7416    71.6799 </r>
       <r>   -15.8810     1.6410    72.0000 </r>
       <r>   -15.7795     0.0000    72.0000 </r>
       <r>   -15.6779    13.5765    73.3787 </r>
       <r>   -15.5764     3.4526    74.6173 </r>
       <r>   -15.4748     3.6293    75.0685 </r>
       <r>   -15.3733     6.3992    76.0832 </r>
       <r>   -15.2717     8.3236    77.1452 </r>
       <r>   -15.1702    11.1984    78.4038 </r>
       <r>   -15.0686     0.0000    80.0000 </r>
       <r>   -14.9671     0.0000    80.0000 </r>
       <r>   -14.8655    30.0038    83.0468 </r>
       <r>   -14.7640     0.0000    84.0000 </r>
       <r>   -14.6624     0.0000    84.0000 </r>
       <r>   -14.5609     0.0000    84.0000 </r>
       <r>   -14.4593     0.0000    84.0000 </r>
       <r>   -14.3578     0.0000    84.0000 </r>
       <r>   -14.2562    39.3902    88.0000 </r>
       <r>   -14.1547     0.0002    88.0000 </r>
       <r>   -14.0532    16.0945    89.6344 </r>
       <r>   -13.9516     1.3121    90.0000 </r>
       <r>   -13.8501    21.1648    92.1492 </r>
       <r>   -13.7485     4.8508    92.9259 </r>
       <r>   -13.6470    11.4482    94.2627 </r>
       <r>   -13.5454    28.2006    97.8304 </r>
       <r>   -13.4439     0.0000    98.0000 </r>
       <r>   -13.3423    19.6928    99.9997 </r>
       <r>   -13.2408    19.6951   102.0000 </r>
       <r>   -13.1392     0.0000   102.0000 </r>
       <r>   -13.0377     0.0000   102.0000 </r>
       <r>   -12.9361     0.0000   102.0000 </r>
       <r>   -12.8346     4.6516   102.4724 </r>
       <r>   -12.7330    12.8016   104.0000 </r>
       <r>   -12.6315     0.0000   104.0000 </r>
       <r>   -12.5300    10.1355   105.0292 </r>
       <r>   -12.4284     3.8158   105.5875 </r>
       <r>   -12.3269    22.6495   108.0000 </r>
       <r>   -12.2253     3.2850   108.3336 </r>
       <r>   -12.1238     5.3313   108.9747 </r>
       <r>   -12.0222     4.2668   110.0000 </r>
       <r>   -11.9207     2.5044   110.2543 </r>
       <r>   -11.8191     8.8625   112.0000 </r>
       <r>   -11.7176    59.0859   118.0000 </r>
       <r>   -11.6160     0.3053   118.0310 </r>
       <r>   -11.5145    34.2502   124.0450 </r>
       <r>   -11.4129    45.2788   129.9981 </r>
       <r>   -11.3114     0.0000   130.0000 </r>
       <r>   -11.2098     3.1825   130.3232 </r>
       <r>   -11.1083    12.4733   132.0000 </r>
       <r>   -11.0067    12.1450   133.2333 </r>
       <r>   -10.9052    24.9469   136.0000 </r>
       <r>   -10.8037    36.6868   139.7254 </r>
       <r>   -10.7021    14.3873   141.4610 </r>
       <r>   -10.6006     0.0000   142.0000 </r>
       <r>   -10.4990    10.4600   143.0622 </r>
       <r>   -10.3975    17.1658   148.3098 </r>
       <r>   -10.2959     0.0000   150.0000 </r>
       <r>   -10.1944    39.2526   153.9860 </r>
       <r>   -10.0928    27.8436   157.4277 </r>
       <r>    -9.9913    23.3060   160.0000 </r>
       <r>    -9.8897    39.3906   164.0000 </r>
       <r>    -9.7882    19.6953   166.0000 </r>
       <r>    -9.6866     0.5312   166.0539 </r>
       <r>    -9.5851     5.2916   166.8374 </r>
       <r>    -9.4835     9.8472   168.0000 </r>
       <r>    -9.3820     0.0000   168.0000 </r>
       <r>    -9.2804    39.3906   172.0000 </r>
       <r>    -9.1789     0.0000   172.0000 </r>
       <r>    -9.0774    11.7920   173.1974 </r>
       <r>    -8.9758     4.3231   173.7390 </r>
       <r>    -8.8743    39.3906   178.0000 </r>
       <r>    -8.7727     0.0000   178.0000 </r>
       <r>    -8.6712    23.7120   180.4079 </r>
       <r>    -8.5696     4.0868   180.9150 </r>
       <r>    -8.4681    11.3940   182.1904 </r>
       <r>    -8.3665    11.0400   183.5878 </r>
       <r>    -8.2650     0.0000   184.0000 </r>
       <r>    -8.1634     0.0000   184.0000 </r>
       <r>    -8.0619     0.0001   184.0000 </r>
       <r>    -7.9603    59.0859   190.0000 </r>
       <r>    -7.8588     0.0000   190.0000 </r>
       <r>    -7.7572     0.0000   190.0000 </r>
       <r>    -7.6557    59.0860   196.0000 </r>
       <r>    -7.5541     0.0000   196.0000 </r>
       <r>    -7.4526     0.0000   196.0000 </r>
       <r>    -7.3511     0.0000   196.0000 </r>
       <r>    -7.2495    44.5821   200.5272 </r>
       <r>    -7.1480     7.5495   202.0000 </r>
       <r>    -7.0464    39.3906   206.0000 </r>
       <r>    -6.9449     0.0000   206.0000 </r>
       <r>    -6.8433     0.0000   206.0000 </r>
       <r>    -6.7418     1.4080   206.1430 </r>
       <r>    -6.6402     0.0000   210.0000 </r>
       <r>    -6.5387    19.6953   212.0000 </r>
       <r>    -6.4371     0.0136   212.0014 </r>
       <r>    -6.3356    39.3770   216.0000 </r>
       <r>    -6.2340     0.0000   216.0000 </r>
       <r>    -6.1325     0.4121   216.0419 </r>
       <r>    -6.0309     4.5917   218.0000 </r>
       <r>    -5.9294    39.3906   222.0000 </r>
       <r>    -5.8279     0.0000   222.0000 </r>
       <r>    -5.7263     0.0000   222.0000 </r>
       <r>    -5.6248    41.6253   226.2269 </r>
       <r>    -5.5232    21.8965   230.2235 </r>
       <r>    -5.4217    17.7149   234.0000 </r>
       <r>    -5.3201     0.0000   234.0000 </r>
       <r>    -5.2186     0.0000   234.0000 </r>
       <r>    -5.1170     0.0000   234.0000 </r>
       <r>    -5.0155     0.0000   234.0000 </r>
       <r>    -4.9139     0.0000   234.0000 </r>
       <r>    -4.8124     0.0000   234.0000 </r>
       <r>    -4.7108     0.0000   234.0000 </r>
       <r>    -4.6093     0.0000   234.0000 </r>
       <r>    -4.5077     0.0000   234.0000 </r>
       <r>    -4.4062     0.0000   234.0000 </r>
       <r>    -4.3046     0.0000   234.0000 </r>
       <r>    -4.2031     0.0000   234.0000 </r>
       <r>    -4.1016     0.0000   234.0000 </r>
       <r>    -4.0000     0.0000   234.0000 </r>
       <r>    -3.8985     0.0000   234.0000 </r>
       <r>    -3.7969     0.0000   234.0000 </r>
       <r>    -3.6954     0.0000   234.0000 </r>
       <r>    -3.5938     0.0000   234.0000 </r>
       <r>    -3.4923     0.0000   234.0000 </r>
       <r>    -3.3907     0.0000   234.0000 </r>
       <r>    -3.2892     0.0000   234.0000 </r>
       <r>    -3.1876     0.0000   234.0000 </r>
       <r>    -3.0861     0.0000   234.0000 </r>
       <r>    -2.9845    39.3873   237.9997 </r>
       <r>    -2.8830     0.0000   238.0000 </r>
       <r>    -2.7814     0.0000   238.0000 </r>
       <r>    -2.6799     3.1986   238.3248 </r>
       <r>    -2.5783     6.1640   239.6926 </r>
       <r>    -2.4768     0.6558   242.0000 </r>
       <r>    -2.3753     0.0000   242.0000 </r>
       <r>    -2.2737     2.6692   242.2711 </r>
       <r>    -2.1722     3.2257   248.5943 </r>
       <r>    -2.0706     2.5124   248.9218 </r>
       <r>    -1.9691     7.1997   249.7311 </r>
       <r>    -1.8675     0.1093   250.0111 </r>
       <r>    -1.7660     7.3944   250.9509 </r>
       <r>    -1.6644     2.0670   251.2432 </r>
       <r>    -1.5629     1.9243   251.4954 </r>
       <r>    -1.4613     1.8644   251.7560 </r>
       <r>    -1.3598     1.6412   252.0000 </r>
       <r>    -1.2582     0.0001   252.0000 </r>
       <r>    -1.1567    23.0240   254.3380 </r>
       <r>    -1.0551     2.3285   254.6032 </r>
       <r>    -0.9536     2.2333   254.8935 </r>
       <r>    -0.8520     9.8428   255.9662 </r>
       <r>    -0.7505    19.6951   258.0000 </r>
       <r>    -0.6490     0.0285   258.0029 </r>
       <r>    -0.5474     9.1919   259.2001 </r>
       <r>    -0.4459     6.7250   259.9829 </r>
       <r>    -0.3443    39.3859   264.0000 </r>
       <r>    -0.2428    10.3423   265.0502 </r>
       <r>    -0.1412     0.0000   266.0000 </r>
       <r>    -0.0397     0.0000   266.0000 </r>
       <r>     0.0619     0.0007   266.0001 </r>
       <r>     0.1634    39.3899   270.0000 </r>
       <r>     0.2650    36.2964   273.6858 </r>
       <r>     0.3665     0.0000   274.0000 </r>
       <r>     0.4681    38.3066   277.8899 </r>
       <r>     0.5696    42.1134   282.2765 </r>
       <r>     0.6712    49.7987   289.0570 </r>
       <r>     0.7727    31.6058   294.0765 </r>
       <r>     0.8743    28.5498   298.4993 </r>
       <r>     0.9758    66.9943   306.1033 </r>
       <r>     1.0773    68.1039   314.9160 </r>
       <r>     1.1789    23.1247   318.9483 </r>
       <r>     1.2804     2.9539   320.0000 </r>
       <r>     1.3820     0.0000   320.0000 </r>
       <r>     1.4835     0.0000   320.0000 </r>
       <r>     1.5851     0.0000   320.0000 </r>
       <r>     1.6866     0.0000   320.0000 </r>
       <r>     1.7882     0.0000   320.0000 </r>
       <r>     1.8897     0.0000   320.0000 </r>
       <r>     1.9913     0.0000   320.0000 </r>
       <r>     2.0928     0.0000   320.0000 </r>
       <r>     2.1944     0.0000   320.0000 </r>
       <r>     2.2959     0.0000   320.0000 </r>
       <r>     2.3975     0.0000   320.0000 </r>
       <r>     2.4990     0.0000   320.0000 </r>
       <r>     2.6005     0.0000   320.0000 </r>
      </set>
     </set>
    </array>
   </total>
  </dos>
 </calculation>
 <structure name="finalpos" >
  <crystal>
   <varray name="basis" >
    <v>      22.19191845       0.00300481       0.00000000 </v>
    <v>     -11.09333586      19.21518127       0.00000000 </v>
    <v>       0.00000000       0.00000000      20.00000000 </v>
   </varray>
   <i name="volume">   8529.10138270 </i>
   <varray name="rec_basis" >
    <v>       0.04505793       0.02601291       0.00000000 </v>
    <v>      -0.00000705       0.05203812       0.00000000 </v>
    <v>       0.00000000       0.00000000       0.05000000 </v>
   </varray>
  </crystal>
  <varray name="positions" >
   <v>       0.26636874       0.61406251       0.46741150 </v>
   <v>       0.31738745       0.59448201       0.46677310 </v>
   <v>       0.38804713       0.64456309       0.46613227 </v>
   <v>       0.40756904       0.71516560       0.46583376 </v>
   <v>       0.28689782       0.68474078       0.46723200 </v>
   <v>       0.19232432       0.55549106       0.47245674 </v>
   <v>       0.44662118       0.62895299       0.47002418 </v>
   <v>       0.74128494       0.38279756       0.54313280 </v>
   <v>       0.68961521       0.40155233       0.54300405 </v>
   <v>       0.61922745       0.35082070       0.54324327 </v>
   <v>       0.60048219       0.28038872       0.54452152 </v>
   <v>       0.72164088       0.31240092       0.54431378 </v>
   <v>       0.81524235       0.44236071       0.53963912 </v>
   <v>       0.55971721       0.36532226       0.53978432 </v>
   <v>       0.54437680       0.96999003       0.49758151 </v>
   <v>       0.47185658       0.93025407       0.48993114 </v>
   <v>       0.03043954       0.56536136       0.48822893 </v>
   <v>       0.07136812       0.53341618       0.48630286 </v>
   <v>       0.43637138       0.45732696       0.48943625 </v>
   <v>       0.46861503       0.53010872       0.48507980 </v>
   <v>       0.35748145       0.73577890       0.46678160 </v>
   <v>       0.37312221       0.80996964       0.47117327 </v>
   <v>       0.65122922       0.26071278       0.54469680 </v>
   <v>       0.63687198       0.18665528       0.54287970 </v>
   <v>       0.53782917       0.06659200       0.51746924 </v>
   <v>       0.43511912       0.96651233       0.49667742 </v>
   <v>       0.93493075       0.46302744       0.51331263 </v>
   <v>       0.03613963       0.46110577       0.49805783 </v>
   <v>       0.53911407       0.46429501       0.51284017 </v>
   <v>       0.54121291       0.56718764       0.49498341 </v>
   <v>       0.46354943       0.75154422       0.46591054 </v>
   <v>       0.25050861       0.70431091       0.46890809 </v>
   <v>       0.29778075       0.53851057       0.46827604 </v>
   <v>       0.54464386       0.24337886       0.54529997 </v>
   <v>       0.75867383       0.29359347       0.54496559 </v>
   <v>       0.70846635       0.45740964       0.54257981 </v>
   <v>       0.57656827       0.94549431       0.49229250 </v>
   <v>       0.47659414       0.84137535       0.47715747 </v>
   <v>       0.05393972       0.62133694       0.47848448 </v>
   <v>       0.15952524       0.62670226       0.46905596 </v>
   <v>       0.38010176       0.42483598       0.48138812 </v>
   <v>       0.37518403       0.52496436       0.46893088 </v>
   <v>       0.37884237       0.94003689       0.49085118 </v>
   <v>       0.53238765       0.15355713       0.52862346 </v>
   <v>       0.06348000       0.43185168       0.49636925 </v>
   <v>       0.84842489       0.37077323       0.52772076 </v>
   <v>       0.57063558       0.62369190       0.49148800 </v>
   <v>       0.63137996       0.46996296       0.52668439 </v>
   <v>       0.32609401       0.82448595       0.47092668 </v>
   <v>       0.17837362       0.49422504       0.47647475 </v>
   <v>       0.50799325       0.67618696       0.47268216 </v>
   <v>       0.68378121       0.17312948       0.55010697 </v>
   <v>       0.82896841       0.50293008       0.54617996 </v>
   <v>       0.49917758       0.31857024       0.54667322 </v>
   <v>       0.57798473       0.03766372       0.51123123 </v>
   <v>       0.44226450       0.85901952       0.47743360 </v>
   <v>       0.96264935       0.53120535       0.50126800 </v>
   <v>       0.14264970       0.57510915       0.47397577 </v>
   <v>       0.47056291       0.42381596       0.50297965 </v>
   <v>       0.42691853       0.55964377       0.47240440 </v>
   <v>       0.46818435       0.03435924       0.51057659 </v>
   <v>       0.56786186       0.13741060       0.53080256 </v>
   <v>       0.96825753       0.42633587       0.51181827 </v>
   <v>       0.86420144       0.42235024       0.52705568 </v>
   <v>       0.57607764       0.53421936       0.50905668 </v>
   <v>       0.57979207       0.43426645       0.52670802 </v>
  </varray>
 </structure>
</modeling>
