<?xml version="1.0" encoding="ISO-8859-1"?>
<modeling>
 <generator>
  <i name="program" type="string">vasp </i>
  <i name="version" type="string">5.4.4.18Apr17-6-g9f103f2a35  </i>
  <i name="subversion" type="string">(build Jun 07 2020 16:50:00) complex            parallel </i>
  <i name="platform" type="string">LinuxIFC </i>
  <i name="date" type="string">2023 02 19 </i>
  <i name="time" type="string">03:08:50 </i>
 </generator>
 <incar>
  <i type="string" name="SYSTEM">Simulation for cell shape cell volume r</i>
  <i type="int" name="ISTART">     1</i>
  <i type="string" name="PREC">high</i>
  <i type="string" name="ALGO">48</i>
  <i type="int" name="ICHARG">    11</i>
  <i type="int" name="NELM">   200</i>
  <i type="int" name="IBRION">    -1</i>
  <i name="EDIFF">      0.00001000</i>
  <i name="EDIFFG">     -0.01000000</i>
  <i type="int" name="NSW">     0</i>
  <i type="int" name="ISIF">     2</i>
  <i name="ENCUT">    500.00000000</i>
  <i name="POTIM">      0.30000000</i>
  <i type="string" name="LREAL">A</i>
  <i type="int" name="ISMEAR">     0</i>
  <i name="SIGMA">      0.01000000</i>
  <i type="int" name="NWRITE">     0</i>
  <i type="logical" name="LWAVE"> F  </i>
  <i type="logical" name="LCHARG"> F  </i>
  <v type="int" name="KPOINT_BSE">    -1     0     0     0</v>
  <i type="int" name="NELM">   200</i>
  <i type="string" name="GGA">PE</i>
 </incar>
 <structure name="primitive_cell" >
  <crystal>
   <varray name="basis" >
    <v>      29.27173114       0.01870167       0.00000000 </v>
    <v>     -14.61956668      25.31115246       0.00000000 </v>
    <v>       0.00000000       0.00000000      20.00000000 </v>
   </varray>
   <i name="volume">  14823.49319768 </i>
   <varray name="rec_basis" >
    <v>       0.03415005       0.01972486       0.00000000 </v>
    <v>      -0.00002523       0.03949370       0.00000000 </v>
    <v>       0.00000000       0.00000000       0.05000000 </v>
   </varray>
  </crystal>
  <varray name="positions" >
   <v>       0.49040784      -0.49241369       0.31144534 </v>
   <v>       0.47578256      -0.47752441       0.35910631 </v>
   <v>       0.44915938      -0.45097443       0.34982480 </v>
   <v>       0.48638904      -0.48766995       0.43104242 </v>
   <v>      -0.48706148       0.48591905       0.43422237 </v>
   <v>       0.43978734      -0.44142635       0.39276206 </v>
   <v>       0.47125074      -0.47218484       0.49024193 </v>
   <v>      -0.47529773       0.47457378       0.49422822 </v>
   <v>       0.44164493      -0.44283056       0.49248704 </v>
   <v>       0.48323493      -0.48352519      -0.44918466 </v>
   <v>      -0.44591331       0.44520041       0.49658880 </v>
   <v>      -0.49042091       0.49019858      -0.44720472 </v>
   <v>       0.36487397       0.48651094       0.49349230 </v>
   <v>      -0.48803964      -0.36577867       0.49367703 </v>
   <v>       0.38621894      -0.47041960       0.49471317 </v>
   <v>       0.46895234      -0.38733209       0.49481460 </v>
   <v>       0.48370251       0.36827104       0.49635611 </v>
   <v>      -0.36921143      -0.48421054       0.49654736 </v>
   <v>      -0.47327335       0.38983424       0.49719485 </v>
   <v>      -0.39062692       0.47270746       0.49731119 </v>
   <v>      -0.48095102       0.48119040      -0.39780228 </v>
   <v>       0.35870753      -0.44303855       0.49802500 </v>
   <v>       0.44137117      -0.36002896       0.49809950 </v>
   <v>       0.38598091      -0.38758112       0.49937602 </v>
   <v>      -0.44577063       0.36238284       0.49792157 </v>
   <v>      -0.36309046       0.44528961       0.49800476 </v>
   <v>       0.31576969      -0.46419090       0.49930935 </v>
   <v>       0.46229246      -0.31703515       0.49941840 </v>
   <v>      -0.39037677       0.38982724       0.49815656 </v>
   <v>      -0.46672392       0.31936516       0.49789431 </v>
   <v>      -0.32013734       0.46636946       0.49802285 </v>
   <v>       0.35668363      -0.35840224      -0.49904839 </v>
   <v>      -0.36112007       0.36061348       0.49818616 </v>
   <v>       0.38493950      -0.30535221      -0.49912704 </v>
   <v>       0.30369873      -0.38671785      -0.49875461 </v>
   <v>      -0.38941110       0.30754402       0.49833226 </v>
   <v>      -0.30810971       0.38889914       0.49802538 </v>
   <v>       0.46232271      -0.21629612       0.49927098 </v>
   <v>       0.21454396      -0.46408361       0.49943670 </v>
   <v>       0.35669267      -0.28057359      -0.49912523 </v>
   <v>       0.27902775      -0.35832796      -0.49889639 </v>
   <v>      -0.46678976       0.21833661       0.49794606 </v>
   <v>      -0.21890182       0.46626249       0.49813349 </v>
   <v>       0.30370216      -0.30525401      -0.49885475 </v>
   <v>       0.44140594      -0.19423165       0.49799750 </v>
   <v>      -0.36116391       0.28273993       0.49821849 </v>
   <v>       0.19264535      -0.44299836       0.49805366 </v>
   <v>      -0.28342320       0.36052644       0.49814066 </v>
   <v>       0.38601506      -0.22208756       0.49928270 </v>
   <v>       0.22062809      -0.38753925       0.49949661 </v>
   <v>      -0.44584092       0.19627824       0.49792120 </v>
   <v>      -0.30815969       0.30744763       0.49812098 </v>
   <v>      -0.19696585       0.44519464       0.49801867 </v>
   <v>      -0.39044645       0.22425363       0.49816057 </v>
   <v>      -0.22501816       0.38972716       0.49817551 </v>
   <v>      -0.48798992      -0.11786212       0.49357745 </v>
   <v>       0.11624332       0.48649175       0.49319771 </v>
   <v>       0.46900170      -0.13933177       0.49475561 </v>
   <v>       0.13782724      -0.47044017       0.49452557 </v>
   <v>       0.35874701      -0.19391917       0.49795932 </v>
   <v>       0.19268620      -0.36004011       0.49813586 </v>
   <v>       0.48362136       0.11981880       0.49631347 </v>
   <v>      -0.12050087      -0.48429120       0.49638664 </v>
   <v>      -0.47335521       0.14130586       0.49713199 </v>
   <v>      -0.14207159       0.47262265       0.49717476 </v>
   <v>       0.43972961      -0.11455407       0.39273261 </v>
   <v>       0.11320497      -0.44095153       0.39230129 </v>
   <v>       0.31580870      -0.21572615       0.49922361 </v>
   <v>       0.21461553      -0.31704574       0.49958057 </v>
   <v>       0.44912232      -0.09563826       0.34979319 </v>
   <v>       0.09426967      -0.45061999       0.34939444 </v>
   <v>      -0.36317529       0.19607722       0.49795884 </v>
   <v>      -0.19700608       0.36228912       0.49792665 </v>
   <v>       0.44169778      -0.11115345       0.49248608 </v>
   <v>       0.10987652      -0.44290905       0.49220143 </v>
   <v>       0.38627452      -0.13901219       0.49468970 </v>
   <v>       0.13786832      -0.38741384       0.49462303 </v>
   <v>      -0.32021777       0.21797576       0.49799502 </v>
   <v>      -0.21897488       0.31927297       0.49798062 </v>
   <v>      -0.44601349       0.11330070       0.49645890 </v>
   <v>      -0.11423962       0.44511078       0.49634256 </v>
   <v>      -0.39072685       0.14110415       0.49719241 </v>
   <v>      -0.14211300       0.38974905       0.49706781 </v>
   <v>       0.47567840      -0.04243179       0.35904235 </v>
   <v>       0.04115473      -0.47739828       0.35874059 </v>
   <v>       0.47126323      -0.05218228       0.49022265 </v>
   <v>       0.05099124      -0.47232333       0.48991460 </v>
   <v>       0.36495672      -0.11727616       0.49345977 </v>
   <v>       0.11631135      -0.36591651       0.49337949 </v>
   <v>       0.01166450      -0.49241707       0.31109474 </v>
   <v>       0.49025644      -0.01294232       0.31134416 </v>
   <v>       0.48629243      -0.02160506       0.43097486 </v>
   <v>       0.02043148      -0.48765005       0.43069830 </v>
   <v>      -0.47541258       0.05452709       0.49409378 </v>
   <v>      -0.05556286       0.47444866       0.49389652 </v>
   <v>      -0.36931448       0.11944735       0.49639636 </v>
   <v>      -0.12057561       0.36821542       0.49619567 </v>
   <v>      -0.48722204       0.03138056       0.43410635 </v>
   <v>       0.48323618      -0.02881388      -0.44921977 </v>
   <v>       0.02767009      -0.48388072      -0.44952046 </v>
   <v>      -0.03246829       0.48594047       0.43390023 </v>
   <v>      -0.48100522       0.04232676      -0.39790724 </v>
   <v>      -0.04331685       0.48068614      -0.39811358 </v>
   <v>      -0.49046765       0.02381842      -0.44729520 </v>
   <v>      -0.02487566       0.48984938      -0.44752466 </v>
  </varray>
 </structure>
 <varray name="primitive_index" >
  <v type="int" >        1 </v>
  <v type="int" >        8 </v>
  <v type="int" >        6 </v>
  <v type="int" >        7 </v>
  <v type="int" >       73 </v>
  <v type="int" >      102 </v>
  <v type="int" >        9 </v>
  <v type="int" >       60 </v>
  <v type="int" >       28 </v>
  <v type="int" >       64 </v>
  <v type="int" >       49 </v>
  <v type="int" >       63 </v>
  <v type="int" >       81 </v>
  <v type="int" >       83 </v>
  <v type="int" >       27 </v>
  <v type="int" >       29 </v>
  <v type="int" >       95 </v>
  <v type="int" >       93 </v>
  <v type="int" >       50 </v>
  <v type="int" >       48 </v>
  <v type="int" >      105 </v>
  <v type="int" >       26 </v>
  <v type="int" >       30 </v>
  <v type="int" >       25 </v>
  <v type="int" >       51 </v>
  <v type="int" >       47 </v>
  <v type="int" >       80 </v>
  <v type="int" >       82 </v>
  <v type="int" >       46 </v>
  <v type="int" >       94 </v>
  <v type="int" >       92 </v>
  <v type="int" >       12 </v>
  <v type="int" >       33 </v>
  <v type="int" >       66 </v>
  <v type="int" >       67 </v>
  <v type="int" >       69 </v>
  <v type="int" >       70 </v>
  <v type="int" >       84 </v>
  <v type="int" >       79 </v>
  <v type="int" >       11 </v>
  <v type="int" >       10 </v>
  <v type="int" >       96 </v>
  <v type="int" >       91 </v>
  <v type="int" >       65 </v>
  <v type="int" >       18 </v>
  <v type="int" >       32 </v>
  <v type="int" >       24 </v>
  <v type="int" >       31 </v>
  <v type="int" >       13 </v>
  <v type="int" >       19 </v>
  <v type="int" >       39 </v>
  <v type="int" >       68 </v>
  <v type="int" >       45 </v>
  <v type="int" >       34 </v>
  <v type="int" >       40 </v>
  <v type="int" >       85 </v>
  <v type="int" >       78 </v>
  <v type="int" >       17 </v>
  <v type="int" >       23 </v>
  <v type="int" >       14 </v>
  <v type="int" >       20 </v>
  <v type="int" >       97 </v>
  <v type="int" >       90 </v>
  <v type="int" >       38 </v>
  <v type="int" >       44 </v>
  <v type="int" >      100 </v>
  <v type="int" >      101 </v>
  <v type="int" >       87 </v>
  <v type="int" >       77 </v>
  <v type="int" >        3 </v>
  <v type="int" >        5 </v>
  <v type="int" >       35 </v>
  <v type="int" >       41 </v>
  <v type="int" >       16 </v>
  <v type="int" >       22 </v>
  <v type="int" >       15 </v>
  <v type="int" >       21 </v>
  <v type="int" >       99 </v>
  <v type="int" >       89 </v>
  <v type="int" >       37 </v>
  <v type="int" >       43 </v>
  <v type="int" >       36 </v>
  <v type="int" >       42 </v>
  <v type="int" >       55 </v>
  <v type="int" >       59 </v>
  <v type="int" >       52 </v>
  <v type="int" >       56 </v>
  <v type="int" >       86 </v>
  <v type="int" >       76 </v>
  <v type="int" >        4 </v>
  <v type="int" >        2 </v>
  <v type="int" >       54 </v>
  <v type="int" >       58 </v>
  <v type="int" >       53 </v>
  <v type="int" >       57 </v>
  <v type="int" >       98 </v>
  <v type="int" >       88 </v>
  <v type="int" >       71 </v>
  <v type="int" >       74 </v>
  <v type="int" >       75 </v>
  <v type="int" >       72 </v>
  <v type="int" >      103 </v>
  <v type="int" >      104 </v>
  <v type="int" >       61 </v>
  <v type="int" >       62 </v>
 </varray>
 <kpoints>
  <generation param="listgenerated">
   <i name="divisions" type="int">      20 </i>
   <v>       0.00000000       0.00000000       0.00000000 </v>
   <v>       0.50000000       0.00000000       0.00000000 </v>
   <v>       0.33333333       0.33333333       0.00000000 </v>
   <v>       0.00000000       0.00000000       0.00000000 </v>
  </generation>
  <varray name="kpointlist" >
   <v>       0.00000000       0.00000000       0.00000000 </v>
   <v>       0.02631579       0.00000000       0.00000000 </v>
   <v>       0.05263158       0.00000000       0.00000000 </v>
   <v>       0.07894737       0.00000000       0.00000000 </v>
   <v>       0.10526316       0.00000000       0.00000000 </v>
   <v>       0.13157895       0.00000000       0.00000000 </v>
   <v>       0.15789474       0.00000000       0.00000000 </v>
   <v>       0.18421053       0.00000000       0.00000000 </v>
   <v>       0.21052632       0.00000000       0.00000000 </v>
   <v>       0.23684211       0.00000000       0.00000000 </v>
   <v>       0.26315789       0.00000000       0.00000000 </v>
   <v>       0.28947368       0.00000000       0.00000000 </v>
   <v>       0.31578947       0.00000000       0.00000000 </v>
   <v>       0.34210526       0.00000000       0.00000000 </v>
   <v>       0.36842105       0.00000000       0.00000000 </v>
   <v>       0.39473684       0.00000000       0.00000000 </v>
   <v>       0.42105263       0.00000000       0.00000000 </v>
   <v>       0.44736842       0.00000000       0.00000000 </v>
   <v>       0.47368421       0.00000000       0.00000000 </v>
   <v>       0.50000000       0.00000000       0.00000000 </v>
   <v>       0.50000000       0.00000000       0.00000000 </v>
   <v>       0.49122807       0.01754386       0.00000000 </v>
   <v>       0.48245614       0.03508772       0.00000000 </v>
   <v>       0.47368421       0.05263158       0.00000000 </v>
   <v>       0.46491228       0.07017544       0.00000000 </v>
   <v>       0.45614035       0.08771930       0.00000000 </v>
   <v>       0.44736842       0.10526316       0.00000000 </v>
   <v>       0.43859649       0.12280702       0.00000000 </v>
   <v>       0.42982456       0.14035088       0.00000000 </v>
   <v>       0.42105263       0.15789474       0.00000000 </v>
   <v>       0.41228070       0.17543860       0.00000000 </v>
   <v>       0.40350877       0.19298246       0.00000000 </v>
   <v>       0.39473684       0.21052632       0.00000000 </v>
   <v>       0.38596491       0.22807018       0.00000000 </v>
   <v>       0.37719298       0.24561404       0.00000000 </v>
   <v>       0.36842105       0.26315789       0.00000000 </v>
   <v>       0.35964912       0.28070175       0.00000000 </v>
   <v>       0.35087719       0.29824561       0.00000000 </v>
   <v>       0.34210526       0.31578947       0.00000000 </v>
   <v>       0.33333333       0.33333333       0.00000000 </v>
   <v>       0.33333333       0.33333333       0.00000000 </v>
   <v>       0.31578947       0.31578947       0.00000000 </v>
   <v>       0.29824561       0.29824561       0.00000000 </v>
   <v>       0.28070175       0.28070175       0.00000000 </v>
   <v>       0.26315789       0.26315789       0.00000000 </v>
   <v>       0.24561404       0.24561404       0.00000000 </v>
   <v>       0.22807018       0.22807018       0.00000000 </v>
   <v>       0.21052632       0.21052632       0.00000000 </v>
   <v>       0.19298246       0.19298246       0.00000000 </v>
   <v>       0.17543860       0.17543860       0.00000000 </v>
   <v>       0.15789474       0.15789474       0.00000000 </v>
   <v>       0.14035088       0.14035088       0.00000000 </v>
   <v>       0.12280702       0.12280702       0.00000000 </v>
   <v>       0.10526316       0.10526316       0.00000000 </v>
   <v>       0.08771930       0.08771930       0.00000000 </v>
   <v>       0.07017544       0.07017544       0.00000000 </v>
   <v>       0.05263158       0.05263158       0.00000000 </v>
   <v>       0.03508772       0.03508772       0.00000000 </v>
   <v>       0.01754386       0.01754386       0.00000000 </v>
   <v>       0.00000000       0.00000000       0.00000000 </v>
  </varray>
  <varray name="weights" >
   <v>       0.01666667 </v>
   <v>       0.01666667 </v>
   <v>       0.01666667 </v>
   <v>       0.01666667 </v>
   <v>       0.01666667 </v>
   <v>       0.01666667 </v>
   <v>       0.01666667 </v>
   <v>       0.01666667 </v>
   <v>       0.01666667 </v>
   <v>       0.01666667 </v>
   <v>       0.01666667 </v>
   <v>       0.01666667 </v>
   <v>       0.01666667 </v>
   <v>       0.01666667 </v>
   <v>       0.01666667 </v>
   <v>       0.01666667 </v>
   <v>       0.01666667 </v>
   <v>       0.01666667 </v>
   <v>       0.01666667 </v>
   <v>       0.01666667 </v>
   <v>       0.01666667 </v>
   <v>       0.01666667 </v>
   <v>       0.01666667 </v>
   <v>       0.01666667 </v>
   <v>       0.01666667 </v>
   <v>       0.01666667 </v>
   <v>       0.01666667 </v>
   <v>       0.01666667 </v>
   <v>       0.01666667 </v>
   <v>       0.01666667 </v>
   <v>       0.01666667 </v>
   <v>       0.01666667 </v>
   <v>       0.01666667 </v>
   <v>       0.01666667 </v>
   <v>       0.01666667 </v>
   <v>       0.01666667 </v>
   <v>       0.01666667 </v>
   <v>       0.01666667 </v>
   <v>       0.01666667 </v>
   <v>       0.01666667 </v>
   <v>       0.01666667 </v>
   <v>       0.01666667 </v>
   <v>       0.01666667 </v>
   <v>       0.01666667 </v>
   <v>       0.01666667 </v>
   <v>       0.01666667 </v>
   <v>       0.01666667 </v>
   <v>       0.01666667 </v>
   <v>       0.01666667 </v>
   <v>       0.01666667 </v>
   <v>       0.01666667 </v>
   <v>       0.01666667 </v>
   <v>       0.01666667 </v>
   <v>       0.01666667 </v>
   <v>       0.01666667 </v>
   <v>       0.01666667 </v>
   <v>       0.01666667 </v>
   <v>       0.01666667 </v>
   <v>       0.01666667 </v>
   <v>       0.01666667 </v>
  </varray>
 </kpoints>
 <parameters>
  <separator name="general" >
   <i type="string" name="SYSTEM">Simulation for cell shape cell volume r</i>
   <i type="logical" name="LCOMPAT"> F  </i>
  </separator>
  <separator name="electronic" >
   <i type="string" name="PREC">high</i>
   <i name="ENMAX">    500.00000000</i>
   <i name="ENAUG">    644.87300000</i>
   <i name="EDIFF">      0.00001000</i>
   <i type="int" name="IALGO">    38</i>
   <i type="int" name="IWAVPR">    10</i>
   <i type="int" name="NBANDS">   240</i>
   <i name="NELECT">    354.00000000</i>
   <i type="int" name="TURBO">     0</i>
   <i type="int" name="IRESTART">     0</i>
   <i type="int" name="NREBOOT">     0</i>
   <i type="int" name="NMIN">     0</i>
   <i name="EREF">      0.00000000</i>
   <separator name="electronic smearing" >
    <i type="int" name="ISMEAR">     0</i>
    <i name="SIGMA">      0.01000000</i>
    <i name="KSPACING">      0.50000000</i>
    <i type="logical" name="KGAMMA"> T  </i>
   </separator>
   <separator name="electronic projectors" >
    <i type="logical" name="LREAL"> T  </i>
    <v name="ROPT">     -0.00040000     -0.00040000     -0.00040000     -0.00040000</v>
    <i type="int" name="LMAXPAW">  -100</i>
    <i type="int" name="LMAXMIX">     2</i>
    <i type="logical" name="NLSPLINE"> F  </i>
   </separator>
   <separator name="electronic startup" >
    <i type="int" name="ISTART">     1</i>
    <i type="int" name="ICHARG">    11</i>
    <i type="int" name="INIWAV">     1</i>
   </separator>
   <separator name="electronic spin" >
    <i type="int" name="ISPIN">     1</i>
    <i type="logical" name="LNONCOLLINEAR"> F  </i>
    <v name="MAGMOM">      1.00000000      1.00000000      1.00000000      1.00000000      1.00000000      1.00000000      1.00000000      1.00000000      1.00000000      1.00000000      1.00000000      1.00000000      1.00000000      1.00000000      1.00000000      1.00000000      1.00000000      1.00000000      1.00000000      1.00000000
      1.00000000      1.00000000      1.00000000      1.00000000      1.00000000      1.00000000      1.00000000      1.00000000      1.00000000      1.00000000      1.00000000      1.00000000      1.00000000      1.00000000      1.00000000      1.00000000      1.00000000      1.00000000      1.00000000      1.00000000
      1.00000000      1.00000000      1.00000000      1.00000000      1.00000000      1.00000000      1.00000000      1.00000000      1.00000000      1.00000000      1.00000000      1.00000000      1.00000000      1.00000000      1.00000000      1.00000000      1.00000000      1.00000000      1.00000000      1.00000000
      1.00000000      1.00000000      1.00000000      1.00000000      1.00000000      1.00000000      1.00000000      1.00000000      1.00000000      1.00000000      1.00000000      1.00000000      1.00000000      1.00000000      1.00000000      1.00000000      1.00000000      1.00000000      1.00000000      1.00000000
      1.00000000      1.00000000      1.00000000      1.00000000      1.00000000      1.00000000      1.00000000      1.00000000      1.00000000      1.00000000      1.00000000      1.00000000      1.00000000      1.00000000      1.00000000      1.00000000      1.00000000      1.00000000      1.00000000      1.00000000
      1.00000000      1.00000000      1.00000000      1.00000000      1.00000000</v>
    <i name="NUPDOWN">     -1.00000000</i>
    <i type="logical" name="LSORBIT"> F  </i>
    <v name="SAXIS">      0.00000000      0.00000000      1.00000000</v>
    <i type="logical" name="LSPIRAL"> F  </i>
    <v name="QSPIRAL">      0.00000000      0.00000000      0.00000000</v>
    <i type="logical" name="LZEROZ"> F  </i>
   </separator>
   <separator name="electronic exchange-correlation" >
    <i type="logical" name="LASPH"> F  </i>
    <i type="logical" name="LMETAGGA"> F  </i>
   </separator>
   <separator name="electronic convergence" >
    <i type="int" name="NELM">   200</i>
    <i type="int" name="NELMDL">     0</i>
    <i type="int" name="NELMIN">     2</i>
    <i name="ENINI">    500.00000000</i>
    <separator name="electronic convergence detail" >
     <i type="logical" name="LDIAG"> T  </i>
     <i type="logical" name="LSUBROT"> F  </i>
     <i name="WEIMIN">      0.00000000</i>
     <i name="EBREAK">      0.00000001</i>
     <i name="DEPER">      0.30000000</i>
     <i type="int" name="NRMM">     4</i>
     <i name="TIME">      0.40000000</i>
    </separator>
   </separator>
   <separator name="electronic mixer" >
    <i name="AMIX">      0.40000000</i>
    <i name="BMIX">      1.00000000</i>
    <i name="AMIN">      0.10000000</i>
    <i name="AMIX_MAG">      1.60000000</i>
    <i name="BMIX_MAG">      1.00000000</i>
    <separator name="electronic mixer details" >
     <i type="int" name="IMIX">     4</i>
     <i type="logical" name="MIXFIRST"> F  </i>
     <i type="int" name="MAXMIX">   -45</i>
     <i name="WC">    100.00000000</i>
     <i type="int" name="INIMIX">     1</i>
     <i type="int" name="MIXPRE">     1</i>
     <i type="int" name="MREMOVE">     5</i>
    </separator>
   </separator>
   <separator name="electronic dipolcorrection" >
    <i type="logical" name="LDIPOL"> F  </i>
    <i type="logical" name="LMONO"> F  </i>
    <i type="int" name="IDIPOL">     0</i>
    <i name="EPSILON">      1.00000000</i>
    <v name="DIPOL">   -100.00000000   -100.00000000   -100.00000000</v>
    <i name="EFIELD">      0.00000000</i>
   </separator>
  </separator>
  <separator name="grids" >
   <i type="int" name="NGX">   216</i>
   <i type="int" name="NGY">   216</i>
   <i type="int" name="NGZ">   150</i>
   <i type="int" name="NGXF">   324</i>
   <i type="int" name="NGYF">   324</i>
   <i type="int" name="NGZF">   224</i>
   <i type="logical" name="ADDGRID"> F  </i>
  </separator>
  <separator name="ionic" >
   <i type="int" name="NSW">     0</i>
   <i type="int" name="IBRION">    -1</i>
   <i type="int" name="MDALGO">     0</i>
   <i type="int" name="ISIF">     2</i>
   <i name="PSTRESS">      0.00000000</i>
   <i name="EDIFFG">     -0.01000000</i>
   <i type="int" name="NFREE">     0</i>
   <i name="POTIM">      0.30000000</i>
   <i name="SMASS">     -3.00000000</i>
   <i name="SCALEE">      1.00000000</i>
  </separator>
  <separator name="ionic md" >
   <i name="TEBEG">      0.00010000</i>
   <i name="TEEND">      0.00010000</i>
   <i type="int" name="NBLOCK">     1</i>
   <i type="int" name="KBLOCK">     1</i>
   <i type="int" name="NPACO">   256</i>
   <i name="APACO">     16.00000000</i>
  </separator>
  <separator name="symmetry" >
   <i type="int" name="ISYM">     2</i>
   <i name="SYMPREC">      0.00001000</i>
  </separator>
  <separator name="dos" >
   <i type="int" name="LORBIT">     0</i>
   <v name="RWIGS">     -1.00000000     -1.00000000     -1.00000000     -1.00000000</v>
   <i type="int" name="NEDOS">   301</i>
   <i name="EMIN">     10.00000000</i>
   <i name="EMAX">    -10.00000000</i>
   <i name="EFERMI">      0.00000000</i>
  </separator>
  <separator name="writing" >
   <i type="int" name="NWRITE">     0</i>
   <i type="logical" name="LWAVE"> F  </i>
   <i type="logical" name="LDOWNSAMPLE"> F  </i>
   <i type="logical" name="LCHARG"> F  </i>
   <i type="logical" name="LPARD"> F  </i>
   <i type="logical" name="LVTOT"> F  </i>
   <i type="logical" name="LVHAR"> F  </i>
   <i type="logical" name="LELF"> F  </i>
   <i type="logical" name="LOPTICS"> F  </i>
   <v name="STM">      0.00000000      0.00000000      0.00000000      0.00000000      0.00000000      0.00000000      0.00000000</v>
  </separator>
  <separator name="performance" >
   <i type="int" name="NPAR">    16</i>
   <i type="int" name="NSIM">     4</i>
   <i type="int" name="NBLK">    -1</i>
   <i type="logical" name="LPLANE"> T  </i>
   <i type="logical" name="LSCALAPACK"> T  </i>
   <i type="logical" name="LSCAAWARE"> F  </i>
   <i type="logical" name="LSCALU"> F  </i>
   <i type="logical" name="LASYNC"> F  </i>
   <i type="logical" name="LORBITALREAL"> F  </i>
  </separator>
  <separator name="miscellaneous" >
   <i type="int" name="IDIOT">     3</i>
   <i type="int" name="ISPECIAL">     0</i>
   <i type="logical" name="LMUSIC"> F  </i>
   <v name="POMASS">     16.00000000     12.01100000     14.00100000      1.00000000</v>
   <v name="DARWINR">      0.00000000      0.00000000      0.00000000      0.00000000</v>
   <v name="DARWINV">      1.00000000      1.00000000      1.00000000      1.00000000</v>
   <i type="logical" name="LCORR"> T  </i>
  </separator>
  <i type="logical" name="GGA_COMPAT"> T  </i>
  <i type="logical" name="LBERRY"> F  </i>
  <i type="int" name="ICORELEVEL">     0</i>
  <i type="logical" name="LDAU"> F  </i>
  <i type="int" name="I_CONSTRAINED_M">     0</i>
  <separator name="electronic exchange-correlation" >
   <i type="string" name="GGA">PE</i>
   <i type="int" name="VOSKOWN">     0</i>
   <i type="logical" name="LHFCALC"> F  </i>
   <i type="string" name="PRECFOCK"></i>
   <i type="logical" name="LSYMGRAD"> F  </i>
   <i type="logical" name="LHFONE"> F  </i>
   <i type="logical" name="LRHFCALC"> F  </i>
   <i type="logical" name="LTHOMAS"> F  </i>
   <i type="logical" name="LMODELHF"> F  </i>
   <i name="ENCUT4O">     -1.00000000</i>
   <i type="int" name="EXXOEP">     0</i>
   <i type="int" name="FOURORBIT">     0</i>
   <i name="AEXX">      0.00000000</i>
   <i name="HFALPHA">      0.00000000</i>
   <i name="MCALPHA">      0.00000000</i>
   <i name="ALDAX">      1.00000000</i>
   <i name="AGGAX">      1.00000000</i>
   <i name="ALDAC">      1.00000000</i>
   <i name="AGGAC">      1.00000000</i>
   <i type="int" name="NKREDX">     1</i>
   <i type="int" name="NKREDY">     1</i>
   <i type="int" name="NKREDZ">     1</i>
   <i type="logical" name="SHIFTRED"> F  </i>
   <i type="logical" name="ODDONLY"> F  </i>
   <i type="logical" name="EVENONLY"> F  </i>
   <i type="int" name="LMAXFOCK">     0</i>
   <i type="int" name="NMAXFOCKAE">     0</i>
   <i type="logical" name="LFOCKAEDFT"> F  </i>
   <i name="HFSCREEN">      0.00000000</i>
   <i name="HFSCREENC">      0.00000000</i>
   <i type="int" name="NBANDSGWLOW">     0</i>
  </separator>
  <separator name="vdW DFT" >
   <i type="logical" name="LUSE_VDW"> F  </i>
   <i name="Zab_VDW">     -0.84910000</i>
   <i name="PARAM1">      0.12340000</i>
   <i name="PARAM2">      1.00000000</i>
   <i name="PARAM3">      0.00000000</i>
  </separator>
  <separator name="model GW" >
   <i type="int" name="MODEL_GW">     0</i>
   <i name="MODEL_EPS0">     84.70567542</i>
   <i name="MODEL_ALPHA">      1.00000000</i>
  </separator>
  <separator name="linear response parameters" >
   <i type="logical" name="LEPSILON"> F  </i>
   <i type="logical" name="LRPA"> F  </i>
   <i type="logical" name="LNABLA"> F  </i>
   <i type="logical" name="LVEL"> F  </i>
   <i type="int" name="KINTER">     0</i>
   <i name="CSHIFT">      0.10000000</i>
   <i name="OMEGAMAX">     -1.00000000</i>
   <i name="DEG_THRESHOLD">      0.00200000</i>
   <i name="RTIME">     -0.10000000</i>
   <i name="WPLASMAI">      0.00000000</i>
   <v name="DFIELD">      0.00000000      0.00000000      0.00000000</v>
   <v name="WPLASMA">      0.00000000      0.00000000      0.00000000      0.00000000      0.00000000      0.00000000      0.00000000      0.00000000      0.00000000</v>
  </separator>
  <separator name="orbital magnetization" >
   <i type="logical" name="NUCIND"> F  </i>
   <v name="MAGPOS">      0.00000000      0.00000000      0.00000000</v>
   <i type="logical" name="LNICSALL"> T  </i>
   <i type="logical" name="ORBITALMAG"> F  </i>
   <i type="logical" name="LMAGBLOCH"> F  </i>
   <i type="logical" name="LCHIMAG"> F  </i>
   <i type="logical" name="LGAUGE"> T  </i>
   <i type="int" name="MAGATOM">     0</i>
   <v name="MAGDIPOL">      0.00000000      0.00000000      0.00000000</v>
   <v name="AVECCONST">      0.00000000      0.00000000      0.00000000</v>
  </separator>
  <separator name="response functions" >
   <i type="logical" name="LADDER"> F  </i>
   <i type="logical" name="LRPAFORCE"> F  </i>
   <i type="logical" name="LFXC"> F  </i>
   <i type="logical" name="LHARTREE"> T  </i>
   <i type="int" name="IBSE">     0</i>
   <v type="int" name="KPOINT">    -1     0     0     0</v>
   <i type="logical" name="LTCTE"> F  </i>
   <i type="logical" name="LTETE"> F  </i>
   <i type="logical" name="LTRIPLET"> F  </i>
   <i type="logical" name="LFXCEPS"> F  </i>
   <i type="logical" name="LFXHEG"> F  </i>
   <i type="int" name="NATURALO">     2</i>
   <i type="logical" name="L2ORDER"> F  </i>
   <i type="logical" name="LMP2LT"> F  </i>
   <i type="logical" name="LUSEW"> F  </i>
   <i name="ENCUTGW">     -2.00000000</i>
   <i name="ENCUTGWSOFT">     -2.00000000</i>
   <i name="ENCUTLF">     -1.00000000</i>
   <i type="int" name="LMAXMP2">    -1</i>
   <i name="SCISSOR">      0.00000000</i>
   <i type="int" name="NOMEGA">     0</i>
   <i type="int" name="NOMEGAR">     0</i>
   <i type="int" name="NBANDSGW">    -1</i>
   <i type="int" name="NBANDSO">    -1</i>
   <i type="int" name="NBANDSV">    -1</i>
   <i type="int" name="NELM">   200</i>
   <i type="int" name="NELMHF">     1</i>
   <i type="int" name="DIM">     3</i>
   <i type="int" name="ANTIRES">     0</i>
   <i name="OMEGAMAX">    -30.00000000</i>
   <i name="OMEGAMIN">    -30.00000000</i>
   <i name="OMEGATL">   -200.00000000</i>
   <i type="int" name="OMEGAGRID">   140</i>
   <i name="CSHIFT">     -0.10000000</i>
   <i type="logical" name="SELFENERGY"> F  </i>
   <i type="logical" name="LSPECTRAL"> F  </i>
   <i type="logical" name="LSPECTRALGW"> F  </i>
   <i type="logical" name="LSINGLES"> F  </i>
   <i type="logical" name="LFERMIGW"> F  </i>
   <i type="logical" name="ODDONLYGW"> F  </i>
   <i type="logical" name="EVENONLYGW"> F  </i>
   <i type="int" name="NKREDLFX">     1</i>
   <i type="int" name="NKREDLFY">     1</i>
   <i type="int" name="NKREDLFZ">     1</i>
   <i type="int" name="MAXMEM">  2800</i>
   <i type="int" name="TELESCOPE">     0</i>
   <i type="int" name="TAUPAR">     1</i>
   <i type="int" name="OMEGAPAR">    -1</i>
   <i name="LAMBDA">      1.00000000</i>
  </separator>
  <separator name="External order field" >
   <i name="OFIELD_KAPPA">      0.00000000</i>
   <v name="OFIELD_K">      0.00000000      0.00000000      0.00000000</v>
   <i name="OFIELD_Q6_NEAR">      0.00000000</i>
   <i name="OFIELD_Q6_FAR">      0.00000000</i>
   <i name="OFIELD_A">      0.00000000</i>
  </separator>
  <separator name="solvation model" >
   <i type="logical" name="LSOL"> F  </i>
  </separator>
 </parameters>
 <atominfo>
  <atoms>     105 </atoms>
  <types>       4 </types>
  <array name="atoms" >
   <dimension dim="1">ion</dimension>
   <field type="string">element</field>
   <field type="int">atomtype</field>
   <set>
    <rc><c>O </c><c>   1</c></rc>
    <rc><c>O </c><c>   1</c></rc>
    <rc><c>O </c><c>   1</c></rc>
    <rc><c>O </c><c>   1</c></rc>
    <rc><c>O </c><c>   1</c></rc>
    <rc><c>O </c><c>   1</c></rc>
    <rc><c>C </c><c>   2</c></rc>
    <rc><c>C </c><c>   2</c></rc>
    <rc><c>C </c><c>   2</c></rc>
    <rc><c>C </c><c>   2</c></rc>
    <rc><c>C </c><c>   2</c></rc>
    <rc><c>C </c><c>   2</c></rc>
    <rc><c>C </c><c>   2</c></rc>
    <rc><c>C </c><c>   2</c></rc>
    <rc><c>C </c><c>   2</c></rc>
    <rc><c>C </c><c>   2</c></rc>
    <rc><c>C </c><c>   2</c></rc>
    <rc><c>C </c><c>   2</c></rc>
    <rc><c>C </c><c>   2</c></rc>
    <rc><c>C </c><c>   2</c></rc>
    <rc><c>C </c><c>   2</c></rc>
    <rc><c>C </c><c>   2</c></rc>
    <rc><c>C </c><c>   2</c></rc>
    <rc><c>C </c><c>   2</c></rc>
    <rc><c>C </c><c>   2</c></rc>
    <rc><c>C </c><c>   2</c></rc>
    <rc><c>C </c><c>   2</c></rc>
    <rc><c>C </c><c>   2</c></rc>
    <rc><c>C </c><c>   2</c></rc>
    <rc><c>C </c><c>   2</c></rc>
    <rc><c>C </c><c>   2</c></rc>
    <rc><c>C </c><c>   2</c></rc>
    <rc><c>C </c><c>   2</c></rc>
    <rc><c>C </c><c>   2</c></rc>
    <rc><c>C </c><c>   2</c></rc>
    <rc><c>C </c><c>   2</c></rc>
    <rc><c>C </c><c>   2</c></rc>
    <rc><c>C </c><c>   2</c></rc>
    <rc><c>C </c><c>   2</c></rc>
    <rc><c>C </c><c>   2</c></rc>
    <rc><c>C </c><c>   2</c></rc>
    <rc><c>C </c><c>   2</c></rc>
    <rc><c>C </c><c>   2</c></rc>
    <rc><c>C </c><c>   2</c></rc>
    <rc><c>C </c><c>   2</c></rc>
    <rc><c>C </c><c>   2</c></rc>
    <rc><c>C </c><c>   2</c></rc>
    <rc><c>C </c><c>   2</c></rc>
    <rc><c>C </c><c>   2</c></rc>
    <rc><c>C </c><c>   2</c></rc>
    <rc><c>C </c><c>   2</c></rc>
    <rc><c>C </c><c>   2</c></rc>
    <rc><c>C </c><c>   2</c></rc>
    <rc><c>C </c><c>   2</c></rc>
    <rc><c>C </c><c>   2</c></rc>
    <rc><c>C </c><c>   2</c></rc>
    <rc><c>C </c><c>   2</c></rc>
    <rc><c>C </c><c>   2</c></rc>
    <rc><c>C </c><c>   2</c></rc>
    <rc><c>C </c><c>   2</c></rc>
    <rc><c>C </c><c>   2</c></rc>
    <rc><c>C </c><c>   2</c></rc>
    <rc><c>C </c><c>   2</c></rc>
    <rc><c>N </c><c>   3</c></rc>
    <rc><c>N </c><c>   3</c></rc>
    <rc><c>N </c><c>   3</c></rc>
    <rc><c>N </c><c>   3</c></rc>
    <rc><c>N </c><c>   3</c></rc>
    <rc><c>N </c><c>   3</c></rc>
    <rc><c>N </c><c>   3</c></rc>
    <rc><c>N </c><c>   3</c></rc>
    <rc><c>N </c><c>   3</c></rc>
    <rc><c>N </c><c>   3</c></rc>
    <rc><c>N </c><c>   3</c></rc>
    <rc><c>N </c><c>   3</c></rc>
    <rc><c>H </c><c>   4</c></rc>
    <rc><c>H </c><c>   4</c></rc>
    <rc><c>H </c><c>   4</c></rc>
    <rc><c>H </c><c>   4</c></rc>
    <rc><c>H </c><c>   4</c></rc>
    <rc><c>H </c><c>   4</c></rc>
    <rc><c>H </c><c>   4</c></rc>
    <rc><c>H </c><c>   4</c></rc>
    <rc><c>H </c><c>   4</c></rc>
    <rc><c>H </c><c>   4</c></rc>
    <rc><c>H </c><c>   4</c></rc>
    <rc><c>H </c><c>   4</c></rc>
    <rc><c>H </c><c>   4</c></rc>
    <rc><c>H </c><c>   4</c></rc>
    <rc><c>H </c><c>   4</c></rc>
    <rc><c>H </c><c>   4</c></rc>
    <rc><c>H </c><c>   4</c></rc>
    <rc><c>H </c><c>   4</c></rc>
    <rc><c>H </c><c>   4</c></rc>
    <rc><c>H </c><c>   4</c></rc>
    <rc><c>H </c><c>   4</c></rc>
    <rc><c>H </c><c>   4</c></rc>
    <rc><c>H </c><c>   4</c></rc>
    <rc><c>H </c><c>   4</c></rc>
    <rc><c>H </c><c>   4</c></rc>
    <rc><c>H </c><c>   4</c></rc>
    <rc><c>H </c><c>   4</c></rc>
    <rc><c>H </c><c>   4</c></rc>
    <rc><c>H </c><c>   4</c></rc>
    <rc><c>H </c><c>   4</c></rc>
   </set>
  </array>
  <array name="atomtypes" >
   <dimension dim="1">type</dimension>
   <field type="int">atomspertype</field>
   <field type="string">element</field>
   <field>mass</field>
   <field>valence</field>
   <field type="string">pseudopotential</field>
   <set>
    <rc><c>   6</c><c>O </c><c>     16.00000000</c><c>      6.00000000</c><c>  PAW_PBE O 08Apr2002                   </c></rc>
    <rc><c>  57</c><c>C </c><c>     12.01100000</c><c>      4.00000000</c><c>  PAW_PBE C 08Apr2002                   </c></rc>
    <rc><c>  12</c><c>N </c><c>     14.00100000</c><c>      5.00000000</c><c>  PAW_PBE N 08Apr2002                   </c></rc>
    <rc><c>  30</c><c>H </c><c>      1.00000000</c><c>      1.00000000</c><c>  PAW_PBE H 15Jun2001                   </c></rc>
   </set>
  </array>
 </atominfo>
 <structure name="initialpos" >
  <crystal>
   <varray name="basis" >
    <v>      29.27173114       0.01870167       0.00000000 </v>
    <v>     -14.61956668      25.31115246       0.00000000 </v>
    <v>       0.00000000       0.00000000      20.00000000 </v>
   </varray>
   <i name="volume">  14823.49319768 </i>
   <varray name="rec_basis" >
    <v>       0.03415005       0.01972486       0.00000000 </v>
    <v>      -0.00002523       0.03949370       0.00000000 </v>
    <v>       0.00000000       0.00000000       0.05000000 </v>
   </varray>
  </crystal>
  <varray name="positions" >
   <v>       0.49040784       0.50758631       0.31144534 </v>
   <v>       0.49025644       0.98705768       0.31134416 </v>
   <v>       0.44912232       0.90436174       0.34979319 </v>
   <v>       0.01166450       0.50758293       0.31109474 </v>
   <v>       0.09426967       0.54938001       0.34939444 </v>
   <v>       0.44915938       0.54902557       0.34982480 </v>
   <v>       0.48638904       0.51233005       0.43104242 </v>
   <v>       0.47578256       0.52247559       0.35910631 </v>
   <v>       0.47125074       0.52781516       0.49024193 </v>
   <v>       0.27902775       0.64167204       0.50110361 </v>
   <v>       0.35669267       0.71942641       0.50087477 </v>
   <v>       0.35668363       0.64159776       0.50095161 </v>
   <v>       0.38601506       0.77791244       0.49928270 </v>
   <v>       0.35874701       0.80608083       0.49795932 </v>
   <v>       0.38627452       0.86098781       0.49468970 </v>
   <v>       0.44169778       0.88884655       0.49248608 </v>
   <v>       0.46900170       0.86066823       0.49475561 </v>
   <v>       0.44140594       0.80576835       0.49799750 </v>
   <v>       0.22062809       0.61246075       0.49949661 </v>
   <v>       0.19268620       0.63995989       0.49813586 </v>
   <v>       0.13786832       0.61258616       0.49462303 </v>
   <v>       0.10987652       0.55709095       0.49220143 </v>
   <v>       0.13782724       0.52955983       0.49452557 </v>
   <v>       0.19264535       0.55700164       0.49805366 </v>
   <v>       0.38598091       0.61241888       0.49937602 </v>
   <v>       0.35870753       0.55696145       0.49802500 </v>
   <v>       0.38621894       0.52958040       0.49471317 </v>
   <v>       0.44164493       0.55716944       0.49248704 </v>
   <v>       0.46895234       0.61266791       0.49481460 </v>
   <v>       0.44137117       0.63997104       0.49809950 </v>
   <v>       0.71657680       0.36052644       0.49814066 </v>
   <v>       0.63883609       0.28273993       0.49821849 </v>
   <v>       0.63887993       0.36061348       0.49818616 </v>
   <v>       0.60955355       0.22425363       0.49816057 </v>
   <v>       0.63682471       0.19607722       0.49795884 </v>
   <v>       0.60927315       0.14110415       0.49719241 </v>
   <v>       0.55398651       0.11330070       0.49645890 </v>
   <v>       0.52664479       0.14130586       0.49713199 </v>
   <v>       0.55415908       0.19627824       0.49792120 </v>
   <v>       0.77498184       0.38972716       0.49817551 </v>
   <v>       0.80299392       0.36228912       0.49792665 </v>
   <v>       0.85788700       0.38974905       0.49706781 </v>
   <v>       0.88576038       0.44511078       0.49634256 </v>
   <v>       0.85792841       0.47262265       0.49717476 </v>
   <v>       0.80303415       0.44519464       0.49801867 </v>
   <v>       0.60962323       0.38982724       0.49815656 </v>
   <v>       0.63690954       0.44528961       0.49800476 </v>
   <v>       0.60937308       0.47270746       0.49731119 </v>
   <v>       0.55408669       0.44520041       0.49658880 </v>
   <v>       0.52672665       0.38983424       0.49719485 </v>
   <v>       0.55422937       0.36238284       0.49792157 </v>
   <v>       0.47126323       0.94781772       0.49022265 </v>
   <v>       0.52458742       0.05452709       0.49409378 </v>
   <v>       0.48629243       0.97839494       0.43097486 </v>
   <v>       0.47567840       0.95756821       0.35904235 </v>
   <v>       0.05099124       0.52767667       0.48991460 </v>
   <v>       0.94443714       0.47444866       0.49389652 </v>
   <v>       0.02043148       0.51234995       0.43069830 </v>
   <v>       0.04115473       0.52260172       0.35874059 </v>
   <v>       0.52470227       0.47457378       0.49422822 </v>
   <v>       0.50953235       0.02381842       0.55270480 </v>
   <v>       0.97512434       0.48984938       0.55247534 </v>
   <v>       0.50957909       0.49019858       0.55279528 </v>
   <v>       0.48323493       0.51647481       0.55081534 </v>
   <v>       0.30370216       0.69474599       0.50114525 </v>
   <v>       0.38493950       0.69464779       0.50087296 </v>
   <v>       0.30369873       0.61328215       0.50124539 </v>
   <v>       0.69184031       0.30744763       0.49812098 </v>
   <v>       0.61058890       0.30754402       0.49833226 </v>
   <v>       0.69189029       0.38889914       0.49802538 </v>
   <v>       0.51277796       0.03138056       0.43410635 </v>
   <v>       0.96753171       0.48594047       0.43390023 </v>
   <v>       0.51293852       0.48591905       0.43422237 </v>
   <v>       0.48323618       0.97118612       0.55078023 </v>
   <v>       0.02767009       0.51611928       0.55047954 </v>
   <v>       0.11631135       0.63408349       0.49337949 </v>
   <v>       0.21461553       0.68295426       0.49958057 </v>
   <v>       0.11624332       0.48649175       0.49319771 </v>
   <v>       0.21454396       0.53591639       0.49943670 </v>
   <v>       0.31576969       0.53580910       0.49930935 </v>
   <v>       0.36487397       0.48651094       0.49349230 </v>
   <v>       0.46229246       0.68296485       0.49941840 </v>
   <v>       0.51196036       0.63422133       0.49367703 </v>
   <v>       0.46232271       0.78370388       0.49927098 </v>
   <v>       0.51201008       0.88213788       0.49357745 </v>
   <v>       0.36495672       0.88272384       0.49345977 </v>
   <v>       0.31580870       0.78427385       0.49922361 </v>
   <v>       0.87942439       0.36821542       0.49619567 </v>
   <v>       0.78102512       0.31927297       0.49798062 </v>
   <v>       0.87949913       0.51570880       0.49638664 </v>
   <v>       0.78109818       0.46626249       0.49813349 </v>
   <v>       0.67986266       0.46636946       0.49802285 </v>
   <v>       0.63078857       0.51578946       0.49654736 </v>
   <v>       0.53327608       0.31936516       0.49789431 </v>
   <v>       0.48370251       0.36827104       0.49635611 </v>
   <v>       0.53321024       0.21833661       0.49794606 </v>
   <v>       0.48362136       0.11981880       0.49631347 </v>
   <v>       0.63068552       0.11944735       0.49639636 </v>
   <v>       0.67978223       0.21797576       0.49799502 </v>
   <v>       0.43972961       0.88544593       0.39273261 </v>
   <v>       0.11320497       0.55904847       0.39230129 </v>
   <v>       0.43978734       0.55857365       0.39276206 </v>
   <v>       0.51899478       0.04232676       0.60209276 </v>
   <v>       0.95668315       0.48068614       0.60188642 </v>
   <v>       0.51904898       0.48119040       0.60219772 </v>
  </varray>
 </structure>
 <calculation>
  <scstep>
   <time name="dav">  596.94  604.69</time>
   <time name="total">  597.30  605.11</time>
   <energy>
    <i name="alphaZ">     39.19400522 </i>
    <i name="ewald">  43593.92428038 </i>
    <i name="hartreedc"> -55460.87230897 </i>
    <i name="XCdc">   1276.38709384 </i>
    <i name="pawpsdc">  33044.88415406 </i>
    <i name="pawaedc"> -33112.95336829 </i>
    <i name="eentropy">     -0.00000000 </i>
    <i name="bandstr">  -4670.91117673 </i>
    <i name="atom">  14530.60973276 </i>
    <i name="e_fr_energy">   -759.73758772 </i>
    <i name="e_wo_entrp">   -759.73758772 </i>
    <i name="e_0_energy">   -759.73758772 </i>
   </energy>
  </scstep>
  <scstep>
   <time name="dav">  658.32  666.33</time>
   <time name="total">  658.32  666.33</time>
   <energy>
    <i name="e_fr_energy">   -760.19277773 </i>
    <i name="e_wo_entrp">   -760.19277773 </i>
    <i name="e_0_energy">   -760.19277773 </i>
   </energy>
  </scstep>
  <scstep>
   <time name="dav">  723.16  731.61</time>
   <time name="total">  723.17  731.61</time>
   <energy>
    <i name="e_fr_energy">   -760.20744447 </i>
    <i name="e_wo_entrp">   -760.20744447 </i>
    <i name="e_0_energy">   -760.20744447 </i>
   </energy>
  </scstep>
  <scstep>
   <time name="dav">  649.73  657.49</time>
   <time name="total">  649.73  657.49</time>
   <energy>
    <i name="e_fr_energy">   -760.20772556 </i>
    <i name="e_wo_entrp">   -760.20772556 </i>
    <i name="e_0_energy">   -760.20772556 </i>
   </energy>
  </scstep>
  <scstep>
   <time name="dav">  625.73  633.39</time>
   <time name="total">  625.73  633.39</time>
   <energy>
    <i name="e_fr_energy">   -760.20774095 </i>
    <i name="e_wo_entrp">   -760.20774095 </i>
    <i name="e_0_energy">   -760.20774095 </i>
   </energy>
  </scstep>
  <scstep>
   <time name="dav">  478.70  484.41</time>
   <time name="total">  478.70  484.42</time>
   <energy>
    <i name="alphaZ">     39.19400522 </i>
    <i name="ewald">  43593.92428038 </i>
    <i name="hartreedc"> -55460.87230897 </i>
    <i name="XCdc">   1276.38709384 </i>
    <i name="pawpsdc">  33044.88415406 </i>
    <i name="pawaedc"> -33112.95336829 </i>
    <i name="eentropy">     -0.00000000 </i>
    <i name="bandstr">  -4671.38133047 </i>
    <i name="atom">  14530.60973276 </i>
    <i name="e_fr_energy">   -760.20774146 </i>
    <i name="e_wo_entrp">   -760.20774146 </i>
    <i name="e_0_energy">   -760.20774146 </i>
   </energy>
  </scstep>
  <structure>
   <crystal>
    <varray name="basis" >
     <v>      29.27173114       0.01870167       0.00000000 </v>
     <v>     -14.61956668      25.31115246       0.00000000 </v>
     <v>       0.00000000       0.00000000      20.00000000 </v>
    </varray>
    <i name="volume">  14823.49319768 </i>
    <varray name="rec_basis" >
     <v>       0.03415005       0.01972486       0.00000000 </v>
     <v>      -0.00002523       0.03949370       0.00000000 </v>
     <v>       0.00000000       0.00000000       0.05000000 </v>
    </varray>
   </crystal>
   <varray name="positions" >
    <v>       0.49040784       0.50758631       0.31144534 </v>
    <v>       0.49025644       0.98705768       0.31134416 </v>
    <v>       0.44912232       0.90436174       0.34979319 </v>
    <v>       0.01166450       0.50758293       0.31109474 </v>
    <v>       0.09426967       0.54938001       0.34939444 </v>
    <v>       0.44915938       0.54902557       0.34982480 </v>
    <v>       0.48638904       0.51233005       0.43104242 </v>
    <v>       0.47578256       0.52247559       0.35910631 </v>
    <v>       0.47125074       0.52781516       0.49024193 </v>
    <v>       0.27902775       0.64167204       0.50110361 </v>
    <v>       0.35669267       0.71942641       0.50087477 </v>
    <v>       0.35668363       0.64159776       0.50095161 </v>
    <v>       0.38601506       0.77791244       0.49928270 </v>
    <v>       0.35874701       0.80608083       0.49795932 </v>
    <v>       0.38627452       0.86098781       0.49468970 </v>
    <v>       0.44169778       0.88884655       0.49248608 </v>
    <v>       0.46900170       0.86066823       0.49475561 </v>
    <v>       0.44140594       0.80576835       0.49799750 </v>
    <v>       0.22062809       0.61246075       0.49949661 </v>
    <v>       0.19268620       0.63995989       0.49813586 </v>
    <v>       0.13786832       0.61258616       0.49462303 </v>
    <v>       0.10987652       0.55709095       0.49220143 </v>
    <v>       0.13782724       0.52955983       0.49452557 </v>
    <v>       0.19264535       0.55700164       0.49805366 </v>
    <v>       0.38598091       0.61241888       0.49937602 </v>
    <v>       0.35870753       0.55696145       0.49802500 </v>
    <v>       0.38621894       0.52958040       0.49471317 </v>
    <v>       0.44164493       0.55716944       0.49248704 </v>
    <v>       0.46895234       0.61266791       0.49481460 </v>
    <v>       0.44137117       0.63997104       0.49809950 </v>
    <v>       0.71657680       0.36052644       0.49814066 </v>
    <v>       0.63883609       0.28273993       0.49821849 </v>
    <v>       0.63887993       0.36061348       0.49818616 </v>
    <v>       0.60955355       0.22425363       0.49816057 </v>
    <v>       0.63682471       0.19607722       0.49795884 </v>
    <v>       0.60927315       0.14110415       0.49719241 </v>
    <v>       0.55398651       0.11330070       0.49645890 </v>
    <v>       0.52664479       0.14130586       0.49713199 </v>
    <v>       0.55415908       0.19627824       0.49792120 </v>
    <v>       0.77498184       0.38972716       0.49817551 </v>
    <v>       0.80299392       0.36228912       0.49792665 </v>
    <v>       0.85788700       0.38974905       0.49706781 </v>
    <v>       0.88576038       0.44511078       0.49634256 </v>
    <v>       0.85792841       0.47262265       0.49717476 </v>
    <v>       0.80303415       0.44519464       0.49801867 </v>
    <v>       0.60962323       0.38982724       0.49815656 </v>
    <v>       0.63690954       0.44528961       0.49800476 </v>
    <v>       0.60937308       0.47270746       0.49731119 </v>
    <v>       0.55408669       0.44520041       0.49658880 </v>
    <v>       0.52672665       0.38983424       0.49719485 </v>
    <v>       0.55422937       0.36238284       0.49792157 </v>
    <v>       0.47126323       0.94781772       0.49022265 </v>
    <v>       0.52458742       0.05452709       0.49409378 </v>
    <v>       0.48629243       0.97839494       0.43097486 </v>
    <v>       0.47567840       0.95756821       0.35904235 </v>
    <v>       0.05099124       0.52767667       0.48991460 </v>
    <v>       0.94443714       0.47444866       0.49389652 </v>
    <v>       0.02043148       0.51234995       0.43069830 </v>
    <v>       0.04115473       0.52260172       0.35874059 </v>
    <v>       0.52470227       0.47457378       0.49422822 </v>
    <v>       0.50953235       0.02381842       0.55270480 </v>
    <v>       0.97512434       0.48984938       0.55247534 </v>
    <v>       0.50957909       0.49019858       0.55279528 </v>
    <v>       0.48323493       0.51647481       0.55081534 </v>
    <v>       0.30370216       0.69474599       0.50114525 </v>
    <v>       0.38493950       0.69464779       0.50087296 </v>
    <v>       0.30369873       0.61328215       0.50124539 </v>
    <v>       0.69184031       0.30744763       0.49812098 </v>
    <v>       0.61058890       0.30754402       0.49833226 </v>
    <v>       0.69189029       0.38889914       0.49802538 </v>
    <v>       0.51277796       0.03138056       0.43410635 </v>
    <v>       0.96753171       0.48594047       0.43390023 </v>
    <v>       0.51293852       0.48591905       0.43422237 </v>
    <v>       0.48323618       0.97118612       0.55078023 </v>
    <v>       0.02767009       0.51611928       0.55047954 </v>
    <v>       0.11631135       0.63408349       0.49337949 </v>
    <v>       0.21461553       0.68295426       0.49958057 </v>
    <v>       0.11624332       0.48649175       0.49319771 </v>
    <v>       0.21454396       0.53591639       0.49943670 </v>
    <v>       0.31576969       0.53580910       0.49930935 </v>
    <v>       0.36487397       0.48651094       0.49349230 </v>
    <v>       0.46229246       0.68296485       0.49941840 </v>
    <v>       0.51196036       0.63422133       0.49367703 </v>
    <v>       0.46232271       0.78370388       0.49927098 </v>
    <v>       0.51201008       0.88213788       0.49357745 </v>
    <v>       0.36495672       0.88272384       0.49345977 </v>
    <v>       0.31580870       0.78427385       0.49922361 </v>
    <v>       0.87942439       0.36821542       0.49619567 </v>
    <v>       0.78102512       0.31927297       0.49798062 </v>
    <v>       0.87949913       0.51570880       0.49638664 </v>
    <v>       0.78109818       0.46626249       0.49813349 </v>
    <v>       0.67986266       0.46636946       0.49802285 </v>
    <v>       0.63078857       0.51578946       0.49654736 </v>
    <v>       0.53327608       0.31936516       0.49789431 </v>
    <v>       0.48370251       0.36827104       0.49635611 </v>
    <v>       0.53321024       0.21833661       0.49794606 </v>
    <v>       0.48362136       0.11981880       0.49631347 </v>
    <v>       0.63068552       0.11944735       0.49639636 </v>
    <v>       0.67978223       0.21797576       0.49799502 </v>
    <v>       0.43972961       0.88544593       0.39273261 </v>
    <v>       0.11320497       0.55904847       0.39230129 </v>
    <v>       0.43978734       0.55857365       0.39276206 </v>
    <v>       0.51899478       0.04232676       0.60209276 </v>
    <v>       0.95668315       0.48068614       0.60188642 </v>
    <v>       0.51904898       0.48119040       0.60219772 </v>
   </varray>
  </structure>
  <varray name="forces" >
   <v>       0.00352526      -0.00211535      -0.00672731 </v>
   <v>      -0.00322171      -0.00383845      -0.00389075 </v>
   <v>      -0.00057903      -0.00116007       0.00263653 </v>
   <v>      -0.00080495       0.00009091      -0.00638222 </v>
   <v>      -0.00128555       0.00088070       0.00425755 </v>
   <v>      -0.00013394       0.00059184       0.00134772 </v>
   <v>      -0.00198444       0.00048307       0.00058989 </v>
   <v>      -0.00283932       0.00131719       0.00404453 </v>
   <v>      -0.00012144       0.00001106       0.00288461 </v>
   <v>       0.00059955      -0.00218725      -0.00201153 </v>
   <v>      -0.00532241       0.00018397       0.00052006 </v>
   <v>      -0.00350061      -0.00121209      -0.00250111 </v>
   <v>       0.00063859       0.00050292       0.00104094 </v>
   <v>      -0.00154879       0.00246223       0.00090340 </v>
   <v>      -0.00104968       0.00023218       0.00021258 </v>
   <v>       0.00050549      -0.00001868       0.00183624 </v>
   <v>       0.00061504       0.00178838       0.00035676 </v>
   <v>       0.00009527      -0.00302130       0.00160374 </v>
   <v>      -0.00034106       0.00024606      -0.00004593 </v>
   <v>      -0.00244602      -0.00144060      -0.00033188 </v>
   <v>      -0.00115564       0.00215755       0.00053589 </v>
   <v>       0.00345528       0.00006597       0.00491253 </v>
   <v>      -0.00115540      -0.00099171       0.00038447 </v>
   <v>      -0.00127288      -0.00240103      -0.00104595 </v>
   <v>       0.00230781       0.00218741       0.00014102 </v>
   <v>       0.00085410      -0.00139666       0.00109924 </v>
   <v>      -0.00134205       0.00102789       0.00062508 </v>
   <v>      -0.00009679      -0.00067247       0.00188085 </v>
   <v>      -0.00062938       0.00178571       0.00099834 </v>
   <v>      -0.00074637      -0.00034331       0.00150899 </v>
   <v>       0.00283511       0.00032404      -0.00108910 </v>
   <v>       0.00031427      -0.00057215       0.00164359 </v>
   <v>       0.00200610      -0.00153791      -0.00041826 </v>
   <v>       0.00245633      -0.00180269       0.00047778 </v>
   <v>       0.00082461      -0.00034461       0.00056293 </v>
   <v>       0.00216217       0.00132068       0.00041883 </v>
   <v>      -0.00024030       0.00408974      -0.00243582 </v>
   <v>      -0.00174570       0.00192500      -0.00029163 </v>
   <v>      -0.00127891       0.00219512      -0.00015551 </v>
   <v>       0.00191180      -0.00042736      -0.00085263 </v>
   <v>       0.00112074      -0.00023817      -0.00068653 </v>
   <v>      -0.00118696      -0.00336593      -0.00099606 </v>
   <v>      -0.00300372       0.00015805      -0.00152319 </v>
   <v>      -0.00371963      -0.00088697      -0.00042191 </v>
   <v>       0.00003136       0.00276879      -0.00106423 </v>
   <v>       0.00333278       0.00022660       0.00161196 </v>
   <v>      -0.00149547       0.00126205       0.00067820 </v>
   <v>      -0.00045395      -0.00071254      -0.00069948 </v>
   <v>       0.00160217       0.00060935      -0.00023151 </v>
   <v>       0.00131295      -0.00216241      -0.00081573 </v>
   <v>       0.00039204       0.00112990       0.00028772 </v>
   <v>      -0.00402844      -0.00099496      -0.00044595 </v>
   <v>       0.00310587       0.00223831      -0.00125715 </v>
   <v>       0.00178386       0.00105645       0.00144683 </v>
   <v>      -0.00169881      -0.00532256       0.00391340 </v>
   <v>      -0.00172921       0.00083013      -0.00155738 </v>
   <v>      -0.00082856      -0.00084087      -0.00314941 </v>
   <v>      -0.00040571       0.00028468       0.00399601 </v>
   <v>       0.00455767       0.00131418       0.00694363 </v>
   <v>       0.00074749       0.00035248      -0.00453759 </v>
   <v>       0.00034286      -0.00179955      -0.00190091 </v>
   <v>       0.00075928       0.00235821      -0.00149113 </v>
   <v>      -0.00049252       0.00218582       0.00132217 </v>
   <v>       0.00074857       0.00001527       0.00034531 </v>
   <v>       0.00426572      -0.00122900       0.00220428 </v>
   <v>       0.00118220       0.00257335       0.00113967 </v>
   <v>       0.00025558       0.00222339      -0.00601776 </v>
   <v>      -0.00067076       0.00336455      -0.00067450 </v>
   <v>      -0.00266519      -0.00144830      -0.00195656 </v>
   <v>      -0.00010334       0.00028116       0.00122992 </v>
   <v>      -0.00218019      -0.00682335      -0.00128197 </v>
   <v>       0.00752411       0.00225596      -0.00144603 </v>
   <v>       0.00097568      -0.00003607      -0.00748938 </v>
   <v>       0.00198221       0.00008788      -0.00466133 </v>
   <v>      -0.00530072      -0.00239334       0.00245093 </v>
   <v>       0.00140598      -0.00123765       0.00309333 </v>
   <v>      -0.00036676      -0.00164954      -0.00178939 </v>
   <v>       0.00021149       0.00154222       0.00281077 </v>
   <v>      -0.00169064       0.00027986      -0.00235923 </v>
   <v>       0.00065604       0.00002012       0.00011589 </v>
   <v>       0.00084555      -0.00023870       0.00047279 </v>
   <v>      -0.00045856      -0.00144368       0.00088472 </v>
   <v>      -0.00035597      -0.00036125       0.00071729 </v>
   <v>      -0.00227787       0.00013737       0.00026937 </v>
   <v>      -0.00088020      -0.00011222       0.00253541 </v>
   <v>      -0.00086812       0.00001930       0.00132723 </v>
   <v>       0.00094805      -0.00018605      -0.00013421 </v>
   <v>      -0.00176026       0.00065203      -0.00200425 </v>
   <v>       0.00019162       0.00044021      -0.00038874 </v>
   <v>      -0.00074927      -0.00166186      -0.00200402 </v>
   <v>       0.00045670      -0.00108470      -0.00021217 </v>
   <v>       0.00242246      -0.00031501       0.00202423 </v>
   <v>       0.00160370       0.00249184      -0.00204158 </v>
   <v>       0.00005946       0.00076381       0.00151925 </v>
   <v>       0.00057723       0.00229377      -0.00317391 </v>
   <v>       0.00216681      -0.00106747       0.00109573 </v>
   <v>       0.00076265       0.00005393      -0.00368528 </v>
   <v>       0.00055365      -0.00029261      -0.00221068 </v>
   <v>      -0.00128746      -0.00063195       0.00197113 </v>
   <v>       0.00046864       0.00083946       0.00165528 </v>
   <v>      -0.00013154      -0.00024262       0.00261022 </v>
   <v>       0.00018912      -0.00072797      -0.00157148 </v>
   <v>       0.00241631       0.00392290       0.00222440 </v>
   <v>      -0.00383113      -0.00193770       0.00086582 </v>
   <v>       0.00239786       0.00002576       0.00287328 </v>
  </varray>
  <varray name="stress" >
   <v>      -0.00030382       0.00041046       0.00750701 </v>
   <v>       0.00041046      -0.00107153       0.00068026 </v>
   <v>       0.00750701       0.00068026      -0.15369248 </v>
  </varray>
  <energy>
   <i name="e_fr_energy">   -762.31338413 </i>
   <i name="e_wo_entrp">   -762.31338413 </i>
   <i name="e_0_energy">     -0.00000000 </i>
  </energy>
  <time name="totalsc"> 4426.75 4482.37</time>
  <eigenvalues>
   <array>
    <dimension dim="1">band</dimension>
    <dimension dim="2">kpoint</dimension>
    <dimension dim="3">spin</dimension>
    <field>eigene</field>
    <field>occ</field>
    <set>
     <set comment="spin 1">
      <set comment="kpoint 1">
       <r>  -27.2958    1.0000 </r>
       <r>  -27.2958    1.0000 </r>
       <r>  -27.2939    1.0000 </r>
       <r>  -25.8898    1.0000 </r>
       <r>  -25.4219    1.0000 </r>
       <r>  -25.2121    1.0000 </r>
       <r>  -25.2114    1.0000 </r>
       <r>  -25.2109    1.0000 </r>
       <r>  -24.8990    1.0000 </r>
       <r>  -24.8985    1.0000 </r>
       <r>  -24.8983    1.0000 </r>
       <r>  -23.0640    1.0000 </r>
       <r>  -23.0631    1.0000 </r>
       <r>  -23.0525    1.0000 </r>
       <r>  -22.9629    1.0000 </r>
       <r>  -22.9625    1.0000 </r>
       <r>  -22.5042    1.0000 </r>
       <r>  -22.5015    1.0000 </r>
       <r>  -21.9869    1.0000 </r>
       <r>  -21.9170    1.0000 </r>
       <r>  -21.9145    1.0000 </r>
       <r>  -21.5107    1.0000 </r>
       <r>  -21.4430    1.0000 </r>
       <r>  -21.4427    1.0000 </r>
       <r>  -20.3629    1.0000 </r>
       <r>  -20.3620    1.0000 </r>
       <r>  -20.3368    1.0000 </r>
       <r>  -19.6330    1.0000 </r>
       <r>  -19.6306    1.0000 </r>
       <r>  -19.4733    1.0000 </r>
       <r>  -19.0861    1.0000 </r>
       <r>  -19.0843    1.0000 </r>
       <r>  -19.0824    1.0000 </r>
       <r>  -18.8416    1.0000 </r>
       <r>  -18.8397    1.0000 </r>
       <r>  -18.5902    1.0000 </r>
       <r>  -18.5556    1.0000 </r>
       <r>  -18.5552    1.0000 </r>
       <r>  -18.5535    1.0000 </r>
       <r>  -17.6523    1.0000 </r>
       <r>  -17.6491    1.0000 </r>
       <r>  -17.1194    1.0000 </r>
       <r>  -17.0748    1.0000 </r>
       <r>  -17.0740    1.0000 </r>
       <r>  -16.8908    1.0000 </r>
       <r>  -16.8234    1.0000 </r>
       <r>  -16.8203    1.0000 </r>
       <r>  -16.0502    1.0000 </r>
       <r>  -16.0490    1.0000 </r>
       <r>  -15.7857    1.0000 </r>
       <r>  -15.6703    1.0000 </r>
       <r>  -15.4798    1.0000 </r>
       <r>  -15.4779    1.0000 </r>
       <r>  -15.3088    1.0000 </r>
       <r>  -15.1488    1.0000 </r>
       <r>  -15.1470    1.0000 </r>
       <r>  -15.1181    1.0000 </r>
       <r>  -15.0078    1.0000 </r>
       <r>  -15.0056    1.0000 </r>
       <r>  -15.0055    1.0000 </r>
       <r>  -14.7380    1.0000 </r>
       <r>  -14.7365    1.0000 </r>
       <r>  -14.3925    1.0000 </r>
       <r>  -14.3920    1.0000 </r>
       <r>  -13.8480    1.0000 </r>
       <r>  -13.8465    1.0000 </r>
       <r>  -13.6462    1.0000 </r>
       <r>  -13.6456    1.0000 </r>
       <r>  -13.6089    1.0000 </r>
       <r>  -13.3990    1.0000 </r>
       <r>  -13.3965    1.0000 </r>
       <r>  -13.3962    1.0000 </r>
       <r>  -13.3797    1.0000 </r>
       <r>  -13.2954    1.0000 </r>
       <r>  -13.2305    1.0000 </r>
       <r>  -13.2296    1.0000 </r>
       <r>  -12.7801    1.0000 </r>
       <r>  -12.4305    1.0000 </r>
       <r>  -12.4295    1.0000 </r>
       <r>  -12.1296    1.0000 </r>
       <r>  -12.1278    1.0000 </r>
       <r>  -11.8876    1.0000 </r>
       <r>  -11.7841    1.0000 </r>
       <r>  -11.7829    1.0000 </r>
       <r>  -11.7377    1.0000 </r>
       <r>  -11.6397    1.0000 </r>
       <r>  -11.4789    1.0000 </r>
       <r>  -11.4784    1.0000 </r>
       <r>  -11.3687    1.0000 </r>
       <r>  -11.3047    1.0000 </r>
       <r>  -11.3037    1.0000 </r>
       <r>  -11.2772    1.0000 </r>
       <r>  -11.1811    1.0000 </r>
       <r>  -11.1015    1.0000 </r>
       <r>  -11.1013    1.0000 </r>
       <r>  -10.9344    1.0000 </r>
       <r>  -10.9103    1.0000 </r>
       <r>  -10.9097    1.0000 </r>
       <r>  -10.8313    1.0000 </r>
       <r>  -10.7598    1.0000 </r>
       <r>  -10.7578    1.0000 </r>
       <r>  -10.7234    1.0000 </r>
       <r>  -10.6823    1.0000 </r>
       <r>  -10.4653    1.0000 </r>
       <r>  -10.4647    1.0000 </r>
       <r>  -10.3183    1.0000 </r>
       <r>  -10.3178    1.0000 </r>
       <r>  -10.2704    1.0000 </r>
       <r>  -10.2701    1.0000 </r>
       <r>  -10.2639    1.0000 </r>
       <r>  -10.2633    1.0000 </r>
       <r>  -10.1923    1.0000 </r>
       <r>  -10.1915    1.0000 </r>
       <r>  -10.1425    1.0000 </r>
       <r>  -10.1094    1.0000 </r>
       <r>  -10.1088    1.0000 </r>
       <r>  -10.0773    1.0000 </r>
       <r>  -10.0769    1.0000 </r>
       <r>   -9.7514    1.0000 </r>
       <r>   -9.5412    1.0000 </r>
       <r>   -9.5409    1.0000 </r>
       <r>   -9.3771    1.0000 </r>
       <r>   -9.2433    1.0000 </r>
       <r>   -9.2419    1.0000 </r>
       <r>   -9.1894    1.0000 </r>
       <r>   -9.1332    1.0000 </r>
       <r>   -9.0541    1.0000 </r>
       <r>   -9.0209    1.0000 </r>
       <r>   -9.0176    1.0000 </r>
       <r>   -8.8600    1.0000 </r>
       <r>   -8.8589    1.0000 </r>
       <r>   -8.7696    1.0000 </r>
       <r>   -8.7074    1.0000 </r>
       <r>   -8.7068    1.0000 </r>
       <r>   -8.6968    1.0000 </r>
       <r>   -8.6731    1.0000 </r>
       <r>   -8.5262    1.0000 </r>
       <r>   -8.5246    1.0000 </r>
       <r>   -8.4814    1.0000 </r>
       <r>   -8.4522    1.0000 </r>
       <r>   -8.4520    1.0000 </r>
       <r>   -8.3084    1.0000 </r>
       <r>   -8.3079    1.0000 </r>
       <r>   -8.2257    1.0000 </r>
       <r>   -8.2108    1.0000 </r>
       <r>   -8.2096    1.0000 </r>
       <r>   -7.4494    1.0000 </r>
       <r>   -7.4110    1.0000 </r>
       <r>   -7.4104    1.0000 </r>
       <r>   -7.4047    1.0000 </r>
       <r>   -7.3977    1.0000 </r>
       <r>   -7.3950    1.0000 </r>
       <r>   -7.0588    1.0000 </r>
       <r>   -7.0574    1.0000 </r>
       <r>   -7.0420    1.0000 </r>
       <r>   -6.9599    1.0000 </r>
       <r>   -6.9598    1.0000 </r>
       <r>   -6.9403    1.0000 </r>
       <r>   -6.8603    1.0000 </r>
       <r>   -6.7199    1.0000 </r>
       <r>   -6.7177    1.0000 </r>
       <r>   -6.4915    1.0000 </r>
       <r>   -6.4910    1.0000 </r>
       <r>   -6.4683    1.0000 </r>
       <r>   -6.4465    1.0000 </r>
       <r>   -6.4398    1.0000 </r>
       <r>   -6.3688    1.0000 </r>
       <r>   -6.2270    1.0000 </r>
       <r>   -6.2261    1.0000 </r>
       <r>   -6.1291    1.0000 </r>
       <r>   -6.1260    1.0000 </r>
       <r>   -6.1252    1.0000 </r>
       <r>   -5.9872    1.0000 </r>
       <r>   -5.9853    1.0000 </r>
       <r>   -5.8583    1.0000 </r>
       <r>   -5.8549    1.0000 </r>
       <r>   -5.8531    1.0000 </r>
       <r>   -3.3233    0.0000 </r>
       <r>   -3.3211    0.0000 </r>
       <r>   -3.0197    0.0000 </r>
       <r>   -3.0184    0.0000 </r>
       <r>   -3.0169    0.0000 </r>
       <r>   -2.8113    0.0000 </r>
       <r>   -2.8094    0.0000 </r>
       <r>   -2.3993    0.0000 </r>
       <r>   -2.3987    0.0000 </r>
       <r>   -2.3965    0.0000 </r>
       <r>   -2.2635    0.0000 </r>
       <r>   -1.7996    0.0000 </r>
       <r>   -1.7980    0.0000 </r>
       <r>   -1.7887    0.0000 </r>
       <r>   -1.6932    0.0000 </r>
       <r>   -1.2863    0.0000 </r>
       <r>   -1.2858    0.0000 </r>
       <r>   -1.2781    0.0000 </r>
       <r>   -0.8792    0.0000 </r>
       <r>   -0.8775    0.0000 </r>
       <r>   -0.6041    0.0000 </r>
       <r>   -0.3930    0.0000 </r>
       <r>   -0.3928    0.0000 </r>
       <r>   -0.3355    0.0000 </r>
       <r>   -0.3033    0.0000 </r>
       <r>   -0.3024    0.0000 </r>
       <r>   -0.2099    0.0000 </r>
       <r>   -0.2095    0.0000 </r>
       <r>   -0.1695    0.0000 </r>
       <r>   -0.1123    0.0000 </r>
       <r>   -0.1113    0.0000 </r>
       <r>    0.0471    0.0000 </r>
       <r>    0.1654    0.0000 </r>
       <r>    0.1665    0.0000 </r>
       <r>    0.2116    0.0000 </r>
       <r>    0.2180    0.0000 </r>
       <r>    0.2209    0.0000 </r>
       <r>    0.2319    0.0000 </r>
       <r>    0.2671    0.0000 </r>
       <r>    0.3463    0.0000 </r>
       <r>    0.4121    0.0000 </r>
       <r>    0.4124    0.0000 </r>
       <r>    0.4917    0.0000 </r>
       <r>    0.5493    0.0000 </r>
       <r>    0.5517    0.0000 </r>
       <r>    0.5544    0.0000 </r>
       <r>    0.6974    0.0000 </r>
       <r>    0.7021    0.0000 </r>
       <r>    0.7258    0.0000 </r>
       <r>    0.7735    0.0000 </r>
       <r>    0.7757    0.0000 </r>
       <r>    0.7788    0.0000 </r>
       <r>    0.8665    0.0000 </r>
       <r>    0.8740    0.0000 </r>
       <r>    0.8779    0.0000 </r>
       <r>    0.8824    0.0000 </r>
       <r>    0.8901    0.0000 </r>
       <r>    0.9017    0.0000 </r>
       <r>    0.9031    0.0000 </r>
       <r>    0.9226    0.0000 </r>
       <r>    0.9705    0.0000 </r>
       <r>    0.9908    0.0000 </r>
       <r>    0.9923    0.0000 </r>
      </set>
      <set comment="kpoint 2">
       <r>  -27.2958    1.0000 </r>
       <r>  -27.2958    1.0000 </r>
       <r>  -27.2939    1.0000 </r>
       <r>  -25.8898    1.0000 </r>
       <r>  -25.4219    1.0000 </r>
       <r>  -25.2121    1.0000 </r>
       <r>  -25.2114    1.0000 </r>
       <r>  -25.2109    1.0000 </r>
       <r>  -24.8990    1.0000 </r>
       <r>  -24.8985    1.0000 </r>
       <r>  -24.8983    1.0000 </r>
       <r>  -23.0640    1.0000 </r>
       <r>  -23.0631    1.0000 </r>
       <r>  -23.0525    1.0000 </r>
       <r>  -22.9629    1.0000 </r>
       <r>  -22.9625    1.0000 </r>
       <r>  -22.5042    1.0000 </r>
       <r>  -22.5015    1.0000 </r>
       <r>  -21.9869    1.0000 </r>
       <r>  -21.9170    1.0000 </r>
       <r>  -21.9145    1.0000 </r>
       <r>  -21.5107    1.0000 </r>
       <r>  -21.4430    1.0000 </r>
       <r>  -21.4427    1.0000 </r>
       <r>  -20.3629    1.0000 </r>
       <r>  -20.3620    1.0000 </r>
       <r>  -20.3368    1.0000 </r>
       <r>  -19.6330    1.0000 </r>
       <r>  -19.6305    1.0000 </r>
       <r>  -19.4736    1.0000 </r>
       <r>  -19.0861    1.0000 </r>
       <r>  -19.0843    1.0000 </r>
       <r>  -19.0824    1.0000 </r>
       <r>  -18.8416    1.0000 </r>
       <r>  -18.8393    1.0000 </r>
       <r>  -18.5902    1.0000 </r>
       <r>  -18.5575    1.0000 </r>
       <r>  -18.5554    1.0000 </r>
       <r>  -18.5518    1.0000 </r>
       <r>  -17.6523    1.0000 </r>
       <r>  -17.6486    1.0000 </r>
       <r>  -17.1203    1.0000 </r>
       <r>  -17.0748    1.0000 </r>
       <r>  -17.0739    1.0000 </r>
       <r>  -16.8949    1.0000 </r>
       <r>  -16.8234    1.0000 </r>
       <r>  -16.8153    1.0000 </r>
       <r>  -16.0506    1.0000 </r>
       <r>  -16.0500    1.0000 </r>
       <r>  -15.7857    1.0000 </r>
       <r>  -15.6691    1.0000 </r>
       <r>  -15.4798    1.0000 </r>
       <r>  -15.4779    1.0000 </r>
       <r>  -15.3088    1.0000 </r>
       <r>  -15.1489    1.0000 </r>
       <r>  -15.1482    1.0000 </r>
       <r>  -15.1172    1.0000 </r>
       <r>  -15.0078    1.0000 </r>
       <r>  -15.0056    1.0000 </r>
       <r>  -15.0055    1.0000 </r>
       <r>  -14.7380    1.0000 </r>
       <r>  -14.7364    1.0000 </r>
       <r>  -14.3925    1.0000 </r>
       <r>  -14.3920    1.0000 </r>
       <r>  -13.8480    1.0000 </r>
       <r>  -13.8465    1.0000 </r>
       <r>  -13.6462    1.0000 </r>
       <r>  -13.6456    1.0000 </r>
       <r>  -13.6088    1.0000 </r>
       <r>  -13.3990    1.0000 </r>
       <r>  -13.3965    1.0000 </r>
       <r>  -13.3962    1.0000 </r>
       <r>  -13.3797    1.0000 </r>
       <r>  -13.2961    1.0000 </r>
       <r>  -13.2305    1.0000 </r>
       <r>  -13.2288    1.0000 </r>
       <r>  -12.7802    1.0000 </r>
       <r>  -12.4304    1.0000 </r>
       <r>  -12.4295    1.0000 </r>
       <r>  -12.1296    1.0000 </r>
       <r>  -12.1282    1.0000 </r>
       <r>  -11.8877    1.0000 </r>
       <r>  -11.7835    1.0000 </r>
       <r>  -11.7827    1.0000 </r>
       <r>  -11.7377    1.0000 </r>
       <r>  -11.6399    1.0000 </r>
       <r>  -11.4789    1.0000 </r>
       <r>  -11.4787    1.0000 </r>
       <r>  -11.3688    1.0000 </r>
       <r>  -11.3042    1.0000 </r>
       <r>  -11.3036    1.0000 </r>
       <r>  -11.2772    1.0000 </r>
       <r>  -11.1814    1.0000 </r>
       <r>  -11.1017    1.0000 </r>
       <r>  -11.1013    1.0000 </r>
       <r>  -10.9342    1.0000 </r>
       <r>  -10.9102    1.0000 </r>
       <r>  -10.9096    1.0000 </r>
       <r>  -10.8313    1.0000 </r>
       <r>  -10.7599    1.0000 </r>
       <r>  -10.7578    1.0000 </r>
       <r>  -10.7239    1.0000 </r>
       <r>  -10.6823    1.0000 </r>
       <r>  -10.4652    1.0000 </r>
       <r>  -10.4641    1.0000 </r>
       <r>  -10.3183    1.0000 </r>
       <r>  -10.3178    1.0000 </r>
       <r>  -10.2704    1.0000 </r>
       <r>  -10.2701    1.0000 </r>
       <r>  -10.2639    1.0000 </r>
       <r>  -10.2633    1.0000 </r>
       <r>  -10.1925    1.0000 </r>
       <r>  -10.1917    1.0000 </r>
       <r>  -10.1425    1.0000 </r>
       <r>  -10.1093    1.0000 </r>
       <r>  -10.1088    1.0000 </r>
       <r>  -10.0772    1.0000 </r>
       <r>  -10.0769    1.0000 </r>
       <r>   -9.7513    1.0000 </r>
       <r>   -9.5412    1.0000 </r>
       <r>   -9.5409    1.0000 </r>
       <r>   -9.3771    1.0000 </r>
       <r>   -9.2448    1.0000 </r>
       <r>   -9.2419    1.0000 </r>
       <r>   -9.1877    1.0000 </r>
       <r>   -9.1331    1.0000 </r>
       <r>   -9.0541    1.0000 </r>
       <r>   -9.0209    1.0000 </r>
       <r>   -9.0175    1.0000 </r>
       <r>   -8.8600    1.0000 </r>
       <r>   -8.8588    1.0000 </r>
       <r>   -8.7696    1.0000 </r>
       <r>   -8.7129    1.0000 </r>
       <r>   -8.7073    1.0000 </r>
       <r>   -8.6909    1.0000 </r>
       <r>   -8.6730    1.0000 </r>
       <r>   -8.5262    1.0000 </r>
       <r>   -8.5246    1.0000 </r>
       <r>   -8.4815    1.0000 </r>
       <r>   -8.4522    1.0000 </r>
       <r>   -8.4520    1.0000 </r>
       <r>   -8.3084    1.0000 </r>
       <r>   -8.3079    1.0000 </r>
       <r>   -8.2257    1.0000 </r>
       <r>   -8.2108    1.0000 </r>
       <r>   -8.2096    1.0000 </r>
       <r>   -7.4493    1.0000 </r>
       <r>   -7.4110    1.0000 </r>
       <r>   -7.4104    1.0000 </r>
       <r>   -7.4047    1.0000 </r>
       <r>   -7.3977    1.0000 </r>
       <r>   -7.3951    1.0000 </r>
       <r>   -7.0588    1.0000 </r>
       <r>   -7.0574    1.0000 </r>
       <r>   -7.0420    1.0000 </r>
       <r>   -6.9599    1.0000 </r>
       <r>   -6.9598    1.0000 </r>
       <r>   -6.9403    1.0000 </r>
       <r>   -6.8603    1.0000 </r>
       <r>   -6.7199    1.0000 </r>
       <r>   -6.7177    1.0000 </r>
       <r>   -6.4915    1.0000 </r>
       <r>   -6.4910    1.0000 </r>
       <r>   -6.4683    1.0000 </r>
       <r>   -6.4465    1.0000 </r>
       <r>   -6.4398    1.0000 </r>
       <r>   -6.3688    1.0000 </r>
       <r>   -6.2270    1.0000 </r>
       <r>   -6.2261    1.0000 </r>
       <r>   -6.1291    1.0000 </r>
       <r>   -6.1260    1.0000 </r>
       <r>   -6.1252    1.0000 </r>
       <r>   -5.9872    1.0000 </r>
       <r>   -5.9853    1.0000 </r>
       <r>   -5.8583    1.0000 </r>
       <r>   -5.8549    1.0000 </r>
       <r>   -5.8531    1.0000 </r>
       <r>   -3.3233    0.0000 </r>
       <r>   -3.3211    0.0000 </r>
       <r>   -3.0197    0.0000 </r>
       <r>   -3.0184    0.0000 </r>
       <r>   -3.0168    0.0000 </r>
       <r>   -2.8113    0.0000 </r>
       <r>   -2.8094    0.0000 </r>
       <r>   -2.3993    0.0000 </r>
       <r>   -2.3987    0.0000 </r>
       <r>   -2.3965    0.0000 </r>
       <r>   -2.2635    0.0000 </r>
       <r>   -1.7996    0.0000 </r>
       <r>   -1.7980    0.0000 </r>
       <r>   -1.7887    0.0000 </r>
       <r>   -1.6932    0.0000 </r>
       <r>   -1.2863    0.0000 </r>
       <r>   -1.2858    0.0000 </r>
       <r>   -1.2781    0.0000 </r>
       <r>   -0.8792    0.0000 </r>
       <r>   -0.8775    0.0000 </r>
       <r>   -0.6041    0.0000 </r>
       <r>   -0.3933    0.0000 </r>
       <r>   -0.3929    0.0000 </r>
       <r>   -0.3355    0.0000 </r>
       <r>   -0.3034    0.0000 </r>
       <r>   -0.3020    0.0000 </r>
       <r>   -0.2098    0.0000 </r>
       <r>   -0.2094    0.0000 </r>
       <r>   -0.1695    0.0000 </r>
       <r>   -0.1124    0.0000 </r>
       <r>   -0.1112    0.0000 </r>
       <r>    0.0469    0.0000 </r>
       <r>    0.1634    0.0000 </r>
       <r>    0.1647    0.0000 </r>
       <r>    0.2106    0.0000 </r>
       <r>    0.2196    0.0000 </r>
       <r>    0.2217    0.0000 </r>
       <r>    0.2337    0.0000 </r>
       <r>    0.2680    0.0000 </r>
       <r>    0.3459    0.0000 </r>
       <r>    0.4122    0.0000 </r>
       <r>    0.4131    0.0000 </r>
       <r>    0.4919    0.0000 </r>
       <r>    0.5476    0.0000 </r>
       <r>    0.5517    0.0000 </r>
       <r>    0.5564    0.0000 </r>
       <r>    0.6973    0.0000 </r>
       <r>    0.7015    0.0000 </r>
       <r>    0.7258    0.0000 </r>
       <r>    0.7691    0.0000 </r>
       <r>    0.7767    0.0000 </r>
       <r>    0.7820    0.0000 </r>
       <r>    0.8617    0.0000 </r>
       <r>    0.8760    0.0000 </r>
       <r>    0.8784    0.0000 </r>
       <r>    0.8840    0.0000 </r>
       <r>    0.8854    0.0000 </r>
       <r>    0.9035    0.0000 </r>
       <r>    0.9054    0.0000 </r>
       <r>    0.9230    0.0000 </r>
       <r>    0.9701    0.0000 </r>
       <r>    0.9914    0.0000 </r>
       <r>    0.9928    0.0000 </r>
      </set>
      <set comment="kpoint 3">
       <r>  -27.2958    1.0000 </r>
       <r>  -27.2958    1.0000 </r>
       <r>  -27.2939    1.0000 </r>
       <r>  -25.8898    1.0000 </r>
       <r>  -25.4219    1.0000 </r>
       <r>  -25.2121    1.0000 </r>
       <r>  -25.2114    1.0000 </r>
       <r>  -25.2109    1.0000 </r>
       <r>  -24.8990    1.0000 </r>
       <r>  -24.8985    1.0000 </r>
       <r>  -24.8983    1.0000 </r>
       <r>  -23.0640    1.0000 </r>
       <r>  -23.0631    1.0000 </r>
       <r>  -23.0525    1.0000 </r>
       <r>  -22.9629    1.0000 </r>
       <r>  -22.9625    1.0000 </r>
       <r>  -22.5042    1.0000 </r>
       <r>  -22.5015    1.0000 </r>
       <r>  -21.9869    1.0000 </r>
       <r>  -21.9170    1.0000 </r>
       <r>  -21.9145    1.0000 </r>
       <r>  -21.5107    1.0000 </r>
       <r>  -21.4430    1.0000 </r>
       <r>  -21.4427    1.0000 </r>
       <r>  -20.3629    1.0000 </r>
       <r>  -20.3620    1.0000 </r>
       <r>  -20.3369    1.0000 </r>
       <r>  -19.6330    1.0000 </r>
       <r>  -19.6300    1.0000 </r>
[...]
       <r>   -24.2454     0.0000    22.0000 </r>
       <r>   -24.1415     0.0000    22.0000 </r>
       <r>   -24.0376     0.0000    22.0000 </r>
       <r>   -23.9337     0.0000    22.0000 </r>
       <r>   -23.8298     0.0000    22.0000 </r>
       <r>   -23.7259     0.0000    22.0000 </r>
       <r>   -23.6221     0.0000    22.0000 </r>
       <r>   -23.5182     0.0000    22.0000 </r>
       <r>   -23.4143     0.0000    22.0000 </r>
       <r>   -23.3104     0.0000    22.0000 </r>
       <r>   -23.2065     0.0000    22.0000 </r>
       <r>   -23.1026     0.0000    22.0000 </r>
       <r>   -22.9987    57.7557    28.0000 </r>
       <r>   -22.8949    38.5038    32.0000 </r>
       <r>   -22.7910     0.0000    32.0000 </r>
       <r>   -22.6871     0.0000    32.0000 </r>
       <r>   -22.5832     0.0000    32.0000 </r>
       <r>   -22.4793    38.4831    35.9978 </r>
       <r>   -22.3754     0.0000    36.0000 </r>
       <r>   -22.2715     0.0000    36.0000 </r>
       <r>   -22.1677     0.0000    36.0000 </r>
       <r>   -22.0638     0.0000    36.0000 </r>
       <r>   -21.9599    19.2506    37.9999 </r>
       <r>   -21.8560    38.5038    42.0000 </r>
       <r>   -21.7521     0.0000    42.0000 </r>
       <r>   -21.6482     0.0000    42.0000 </r>
       <r>   -21.5443     0.0000    42.0000 </r>
       <r>   -21.4405    43.9153    46.5622 </r>
       <r>   -21.3366     0.0000    48.0000 </r>
       <r>   -21.2327     0.0000    48.0000 </r>
       <r>   -21.1288     0.0000    48.0000 </r>
       <r>   -21.0249     0.0000    48.0000 </r>
       <r>   -20.9210     0.0000    48.0000 </r>
       <r>   -20.8171     0.0000    48.0000 </r>
       <r>   -20.7133     0.0000    48.0000 </r>
       <r>   -20.6094     0.0000    48.0000 </r>
       <r>   -20.5055     0.0000    48.0000 </r>
       <r>   -20.4016     0.0000    48.0000 </r>
       <r>   -20.2977    57.7557    54.0000 </r>
       <r>   -20.1938     0.0000    54.0000 </r>
       <r>   -20.0899     0.0000    54.0000 </r>
       <r>   -19.9860     0.0000    54.0000 </r>
       <r>   -19.8822     0.0000    54.0000 </r>
       <r>   -19.7783     0.0000    54.0000 </r>
       <r>   -19.6744     0.0000    54.0000 </r>
       <r>   -19.5705    38.5027    57.9999 </r>
       <r>   -19.4666    18.8300    59.9562 </r>
       <r>   -19.3627     0.0000    60.0000 </r>
       <r>   -19.2588     0.0000    60.0000 </r>
       <r>   -19.1550     0.0000    60.0000 </r>
       <r>   -19.0511    57.7521    65.9996 </r>
       <r>   -18.9472     0.0000    66.0000 </r>
       <r>   -18.8433     8.2169    66.8536 </r>
       <r>   -18.7394    13.7844    69.9987 </r>
       <r>   -18.6355     9.9329    71.0319 </r>
       <r>   -18.5316    63.2558    77.8381 </r>
       <r>   -18.4278     0.0000    78.0000 </r>
       <r>   -18.3239     0.0000    78.0000 </r>
       <r>   -18.2200     0.0000    78.0000 </r>
       <r>   -18.1161     0.0000    78.0000 </r>
       <r>   -18.0122     0.0000    78.0000 </r>
       <r>   -17.9083     0.0000    78.0000 </r>
       <r>   -17.8044     0.0000    78.0000 </r>
       <r>   -17.7006     0.0000    78.0000 </r>
       <r>   -17.5967    25.9369    80.6945 </r>
       <r>   -17.4928    10.9094    82.0000 </r>
       <r>   -17.3889     0.0000    82.0000 </r>
       <r>   -17.2850     3.7966    82.3944 </r>
       <r>   -17.1811     4.3324    83.4168 </r>
       <r>   -17.0772    12.9029    84.9071 </r>
       <r>   -16.9734    13.6064    89.4135 </r>
       <r>   -16.8695     3.8494    89.9999 </r>
       <r>   -16.7656    22.0346    92.2891 </r>
       <r>   -16.6617     2.2410    92.5995 </r>
       <r>   -16.5578     2.4477    92.9210 </r>
       <r>   -16.4539     8.7740    93.9115 </r>
       <r>   -16.3500     0.0118    94.0012 </r>
       <r>   -16.2462     8.0447    95.0357 </r>
       <r>   -16.1423     2.6578    95.4094 </r>
       <r>   -16.0384    23.0791    97.8976 </r>
       <r>   -15.9345     0.0000    98.0000 </r>
       <r>   -15.8306     0.0000    98.0000 </r>
       <r>   -15.7267    19.2519   100.0000 </r>
       <r>   -15.6228     4.5438   100.4720 </r>
       <r>   -15.5190    10.9338   101.7359 </r>
       <r>   -15.4151    38.5038   106.0000 </r>
       <r>   -15.3112     7.0811   106.7356 </r>
       <r>   -15.2073    12.7741   109.3270 </r>
       <r>   -15.1034    27.8735   112.3957 </r>
       <r>   -14.9995    47.8651   118.9725 </r>
       <r>   -14.8956     0.0000   120.0000 </r>
       <r>   -14.7918     0.0000   120.0000 </r>
       <r>   -14.6879    38.5038   124.0000 </r>
       <r>   -14.5840     0.0000   124.0000 </r>
       <r>   -14.4801     0.0000   124.0000 </r>
       <r>   -14.3762    38.0605   127.9540 </r>
       <r>   -14.2723     0.0000   128.0000 </r>
       <r>   -14.1684     0.0000   128.0000 </r>
       <r>   -14.0646     0.0000   128.0000 </r>
       <r>   -13.9607     0.0000   128.0000 </r>
       <r>   -13.8568     3.2506   128.3377 </r>
       <r>   -13.7529     0.0000   132.0000 </r>
       <r>   -13.6490    19.6779   134.0443 </r>
       <r>   -13.5451    19.2519   138.0000 </r>
       <r>   -13.4412     0.0000   138.0000 </r>
       <r>   -13.3374    87.3149   147.0708 </r>
       <r>   -13.2335    10.8815   148.6971 </r>
       <r>   -13.1296    15.4000   151.9998 </r>
       <r>   -13.0257     0.0000   152.0000 </r>
       <r>   -12.9218     0.0000   152.0000 </r>
       <r>   -12.8179     0.0269   152.0028 </r>
       <r>   -12.7140     8.3423   154.0000 </r>
       <r>   -12.6101     0.0000   154.0000 </r>
       <r>   -12.5063     0.0000   154.0000 </r>
       <r>   -12.4024    38.4982   157.9994 </r>
       <r>   -12.2985     0.0000   158.0000 </r>
       <r>   -12.1946     0.0334   158.0035 </r>
       <r>   -12.0907    28.8776   162.0000 </r>
       <r>   -11.9868     0.0000   162.0000 </r>
       <r>   -11.8829    14.5322   163.5097 </r>
       <r>   -11.7791     4.4493   164.4622 </r>
       <r>   -11.6752    45.7143   170.1157 </r>
       <r>   -11.5713     5.4561   172.0002 </r>
       <r>   -11.4674    35.8185   175.9544 </r>
       <r>   -11.3635    16.9522   177.7611 </r>
       <r>   -11.2596    45.8865   182.7670 </r>
       <r>   -11.1557    34.2366   186.8901 </r>
       <r>   -11.0519    25.9898   190.0000 </r>
       <r>   -10.9480     0.0631   190.0066 </r>
       <r>   -10.8441    56.9518   196.4165 </r>
       <r>   -10.7402    43.7026   203.1401 </r>
       <r>   -10.6363    19.2519   206.0000 </r>
       <r>   -10.5324     0.0000   206.0000 </r>
       <r>   -10.4285    24.4607   208.5411 </r>
       <r>   -10.3247    22.3670   211.0570 </r>
       <r>   -10.2208    92.7365   223.6340 </r>
       <r>   -10.1169    30.2094   228.4051 </r>
       <r>   -10.0130    38.5029   236.0000 </r>
       <r>    -9.9091     0.0000   236.0000 </r>
       <r>    -9.8052     0.0000   236.0000 </r>
       <r>    -9.7013    19.2519   238.0000 </r>
       <r>    -9.5975     0.0000   238.0000 </r>
       <r>    -9.4936    38.5038   242.0000 </r>
       <r>    -9.3897     0.6051   242.0629 </r>
       <r>    -9.2858    14.3968   245.4956 </r>
       <r>    -9.1819    23.6439   248.1563 </r>
       <r>    -9.0780    33.3251   251.8287 </r>
       <r>    -8.9741    45.9014   257.5353 </r>
       <r>    -8.8703     9.3771   258.9741 </r>
       <r>    -8.7664    21.3077   265.2802 </r>
       <r>    -8.6625    42.7545   270.1749 </r>
       <r>    -8.5586    14.9609   271.9876 </r>
       <r>    -8.4547    79.6674   280.2763 </r>
       <r>    -8.3508     0.0000   282.0000 </r>
       <r>    -8.2469    38.5288   286.0026 </r>
       <r>    -8.1431    38.5038   292.0000 </r>
       <r>    -8.0392     0.0000   292.0000 </r>
       <r>    -7.9353     0.0000   292.0000 </r>
       <r>    -7.8314     0.0000   292.0000 </r>
       <r>    -7.7275     0.0000   292.0000 </r>
       <r>    -7.6236     0.0000   292.0000 </r>
       <r>    -7.5197     0.0000   292.0000 </r>
       <r>    -7.4159    33.4392   295.4739 </r>
       <r>    -7.3120     0.0000   304.0000 </r>
       <r>    -7.2081     0.0000   304.0000 </r>
       <r>    -7.1042     0.0000   304.0000 </r>
       <r>    -7.0003    57.7557   310.0000 </r>
       <r>    -6.8964    57.7557   316.0000 </r>
       <r>    -6.7925    19.2519   318.0000 </r>
       <r>    -6.6887    38.5035   322.0000 </r>
       <r>    -6.5848     0.0000   322.0000 </r>
       <r>    -6.4809    36.5376   325.7957 </r>
       <r>    -6.3770    40.6173   332.2196 </r>
       <r>    -6.2731     0.0000   334.0000 </r>
       <r>    -6.1692    38.5038   338.0000 </r>
       <r>    -6.0653    57.7557   344.0000 </r>
       <r>    -5.9615    38.4941   347.9990 </r>
       <r>    -5.8576    22.3421   350.3210 </r>
       <r>    -5.7537     0.0000   354.0000 </r>
       <r>    -5.6498     0.0000   354.0000 </r>
       <r>    -5.5459     0.0000   354.0000 </r>
       <r>    -5.4420     0.0000   354.0000 </r>
       <r>    -5.3381     0.0000   354.0000 </r>
       <r>    -5.2343     0.0000   354.0000 </r>
       <r>    -5.1304     0.0000   354.0000 </r>
       <r>    -5.0265     0.0000   354.0000 </r>
       <r>    -4.9226     0.0000   354.0000 </r>
       <r>    -4.8187     0.0000   354.0000 </r>
       <r>    -4.7148     0.0000   354.0000 </r>
       <r>    -4.6109     0.0000   354.0000 </r>
       <r>    -4.5070     0.0000   354.0000 </r>
       <r>    -4.4032     0.0000   354.0000 </r>
       <r>    -4.2993     0.0000   354.0000 </r>
       <r>    -4.1954     0.0000   354.0000 </r>
       <r>    -4.0915     0.0000   354.0000 </r>
       <r>    -3.9876     0.0000   354.0000 </r>
       <r>    -3.8837     0.0000   354.0000 </r>
       <r>    -3.7798     0.0000   354.0000 </r>
       <r>    -3.6760     0.0000   354.0000 </r>
       <r>    -3.5721     0.0000   354.0000 </r>
       <r>    -3.4682     0.0000   354.0000 </r>
       <r>    -3.3643     0.0000   354.0000 </r>
       <r>    -3.2604    38.5038   358.0000 </r>
       <r>    -3.1565     0.0000   358.0000 </r>
       <r>    -3.0526     0.0001   358.0000 </r>
       <r>    -2.9488    57.7556   364.0000 </r>
       <r>    -2.8449     0.0001   364.0000 </r>
       <r>    -2.7410    38.5037   368.0000 </r>
       <r>    -2.6371     0.0000   368.0000 </r>
       <r>    -2.5332     0.0000   368.0000 </r>
       <r>    -2.4293     0.0004   368.0000 </r>
       <r>    -2.3254    57.7553   374.0000 </r>
       <r>    -2.2216    19.2519   376.0000 </r>
       <r>    -2.1177     0.0000   376.0000 </r>
       <r>    -2.0138     0.0000   376.0000 </r>
       <r>    -1.9099     0.0000   376.0000 </r>
       <r>    -1.8060     6.2275   376.6470 </r>
       <r>    -1.7021     3.0744   382.3194 </r>
       <r>    -1.5982     0.0000   384.0000 </r>
       <r>    -1.4944     0.0000   384.0000 </r>
       <r>    -1.3905     0.0000   384.0000 </r>
       <r>    -1.2866    20.6989   386.1503 </r>
       <r>    -1.1827     0.0000   390.0000 </r>
       <r>    -1.0788     0.0000   390.0000 </r>
       <r>    -0.9749     0.0000   390.0000 </r>
       <r>    -0.8710    31.5850   393.2812 </r>
       <r>    -0.7672     0.0000   394.0000 </r>
       <r>    -0.6633     0.0000   394.0000 </r>
       <r>    -0.5594    19.2519   396.0000 </r>
       <r>    -0.4555     0.0000   396.0000 </r>
       <r>    -0.3516    38.8644   400.0375 </r>
       <r>    -0.2477    34.1180   405.5444 </r>
       <r>    -0.1438    57.8093   412.0056 </r>
       <r>    -0.0400    27.9148   416.0000 </r>
       <r>     0.0639    30.5176   419.1704 </r>
       <r>     0.1678    20.4949   422.0958 </r>
       <r>     0.2717    48.3543   427.9233 </r>
       <r>     0.3756    28.1323   432.7226 </r>
       <r>     0.4795    42.0264   437.7993 </r>
       <r>     0.5834    43.3205   443.4004 </r>
       <r>     0.6872    56.5993   450.4133 </r>
       <r>     0.7911    50.9004   457.7212 </r>
       <r>     0.8950    63.3778   467.2841 </r>
       <r>     0.9989    78.9799   477.7383 </r>
       <r>     1.1028     2.2458   480.0000 </r>
       <r>     1.2067     0.0000   480.0000 </r>
       <r>     1.3106     0.0000   480.0000 </r>
       <r>     1.4144     0.0000   480.0000 </r>
       <r>     1.5183     0.0000   480.0000 </r>
       <r>     1.6222     0.0000   480.0000 </r>
       <r>     1.7261     0.0000   480.0000 </r>
       <r>     1.8300     0.0000   480.0000 </r>
       <r>     1.9339     0.0000   480.0000 </r>
       <r>     2.0378     0.0000   480.0000 </r>
       <r>     2.1416     0.0000   480.0000 </r>
       <r>     2.2455     0.0000   480.0000 </r>
       <r>     2.3494     0.0000   480.0000 </r>
       <r>     2.4533     0.0000   480.0000 </r>
      </set>
     </set>
    </array>
   </total>
  </dos>
 </calculation>
 <structure name="finalpos" >
  <crystal>
   <varray name="basis" >
    <v>      29.27173114       0.01870167       0.00000000 </v>
    <v>     -14.61956668      25.31115246       0.00000000 </v>
    <v>       0.00000000       0.00000000      20.00000000 </v>
   </varray>
   <i name="volume">  14823.49319768 </i>
   <varray name="rec_basis" >
    <v>       0.03415005       0.01972486       0.00000000 </v>
    <v>      -0.00002523       0.03949370       0.00000000 </v>
    <v>       0.00000000       0.00000000       0.05000000 </v>
   </varray>
  </crystal>
  <varray name="positions" >
   <v>       0.49040784       0.50758631       0.31144534 </v>
   <v>       0.49025644       0.98705768       0.31134416 </v>
   <v>       0.44912232       0.90436174       0.34979319 </v>
   <v>       0.01166450       0.50758293       0.31109474 </v>
   <v>       0.09426967       0.54938001       0.34939444 </v>
   <v>       0.44915938       0.54902557       0.34982480 </v>
   <v>       0.48638904       0.51233005       0.43104242 </v>
   <v>       0.47578256       0.52247559       0.35910631 </v>
   <v>       0.47125074       0.52781516       0.49024193 </v>
   <v>       0.27902775       0.64167204       0.50110361 </v>
   <v>       0.35669267       0.71942641       0.50087477 </v>
   <v>       0.35668363       0.64159776       0.50095161 </v>
   <v>       0.38601506       0.77791244       0.49928270 </v>
   <v>       0.35874701       0.80608083       0.49795932 </v>
   <v>       0.38627452       0.86098781       0.49468970 </v>
   <v>       0.44169778       0.88884655       0.49248608 </v>
   <v>       0.46900170       0.86066823       0.49475561 </v>
   <v>       0.44140594       0.80576835       0.49799750 </v>
   <v>       0.22062809       0.61246075       0.49949661 </v>
   <v>       0.19268620       0.63995989       0.49813586 </v>
   <v>       0.13786832       0.61258616       0.49462303 </v>
   <v>       0.10987652       0.55709095       0.49220143 </v>
   <v>       0.13782724       0.52955983       0.49452557 </v>
   <v>       0.19264535       0.55700164       0.49805366 </v>
   <v>       0.38598091       0.61241888       0.49937602 </v>
   <v>       0.35870753       0.55696145       0.49802500 </v>
   <v>       0.38621894       0.52958040       0.49471317 </v>
   <v>       0.44164493       0.55716944       0.49248704 </v>
   <v>       0.46895234       0.61266791       0.49481460 </v>
   <v>       0.44137117       0.63997104       0.49809950 </v>
   <v>       0.71657680       0.36052644       0.49814066 </v>
   <v>       0.63883609       0.28273993       0.49821849 </v>
   <v>       0.63887993       0.36061348       0.49818616 </v>
   <v>       0.60955355       0.22425363       0.49816057 </v>
   <v>       0.63682471       0.19607722       0.49795884 </v>
   <v>       0.60927315       0.14110415       0.49719241 </v>
   <v>       0.55398651       0.11330070       0.49645890 </v>
   <v>       0.52664479       0.14130586       0.49713199 </v>
   <v>       0.55415908       0.19627824       0.49792120 </v>
   <v>       0.77498184       0.38972716       0.49817551 </v>
   <v>       0.80299392       0.36228912       0.49792665 </v>
   <v>       0.85788700       0.38974905       0.49706781 </v>
   <v>       0.88576038       0.44511078       0.49634256 </v>
   <v>       0.85792841       0.47262265       0.49717476 </v>
   <v>       0.80303415       0.44519464       0.49801867 </v>
   <v>       0.60962323       0.38982724       0.49815656 </v>
   <v>       0.63690954       0.44528961       0.49800476 </v>
   <v>       0.60937308       0.47270746       0.49731119 </v>
   <v>       0.55408669       0.44520041       0.49658880 </v>
   <v>       0.52672665       0.38983424       0.49719485 </v>
   <v>       0.55422937       0.36238284       0.49792157 </v>
   <v>       0.47126323       0.94781772       0.49022265 </v>
   <v>       0.52458742       0.05452709       0.49409378 </v>
   <v>       0.48629243       0.97839494       0.43097486 </v>
   <v>       0.47567840       0.95756821       0.35904235 </v>
   <v>       0.05099124       0.52767667       0.48991460 </v>
   <v>       0.94443714       0.47444866       0.49389652 </v>
   <v>       0.02043148       0.51234995       0.43069830 </v>
   <v>       0.04115473       0.52260172       0.35874059 </v>
   <v>       0.52470227       0.47457378       0.49422822 </v>
   <v>       0.50953235       0.02381842       0.55270480 </v>
   <v>       0.97512434       0.48984938       0.55247534 </v>
   <v>       0.50957909       0.49019858       0.55279528 </v>
   <v>       0.48323493       0.51647481       0.55081534 </v>
   <v>       0.30370216       0.69474599       0.50114525 </v>
   <v>       0.38493950       0.69464779       0.50087296 </v>
   <v>       0.30369873       0.61328215       0.50124539 </v>
   <v>       0.69184031       0.30744763       0.49812098 </v>
   <v>       0.61058890       0.30754402       0.49833226 </v>
   <v>       0.69189029       0.38889914       0.49802538 </v>
   <v>       0.51277796       0.03138056       0.43410635 </v>
   <v>       0.96753171       0.48594047       0.43390023 </v>
   <v>       0.51293852       0.48591905       0.43422237 </v>
   <v>       0.48323618       0.97118612       0.55078023 </v>
   <v>       0.02767009       0.51611928       0.55047954 </v>
   <v>       0.11631135       0.63408349       0.49337949 </v>
   <v>       0.21461553       0.68295426       0.49958057 </v>
   <v>       0.11624332       0.48649175       0.49319771 </v>
   <v>       0.21454396       0.53591639       0.49943670 </v>
   <v>       0.31576969       0.53580910       0.49930935 </v>
   <v>       0.36487397       0.48651094       0.49349230 </v>
   <v>       0.46229246       0.68296485       0.49941840 </v>
   <v>       0.51196036       0.63422133       0.49367703 </v>
   <v>       0.46232271       0.78370388       0.49927098 </v>
   <v>       0.51201008       0.88213788       0.49357745 </v>
   <v>       0.36495672       0.88272384       0.49345977 </v>
   <v>       0.31580870       0.78427385       0.49922361 </v>
   <v>       0.87942439       0.36821542       0.49619567 </v>
   <v>       0.78102512       0.31927297       0.49798062 </v>
   <v>       0.87949913       0.51570880       0.49638664 </v>
   <v>       0.78109818       0.46626249       0.49813349 </v>
   <v>       0.67986266       0.46636946       0.49802285 </v>
   <v>       0.63078857       0.51578946       0.49654736 </v>
   <v>       0.53327608       0.31936516       0.49789431 </v>
   <v>       0.48370251       0.36827104       0.49635611 </v>
   <v>       0.53321024       0.21833661       0.49794606 </v>
   <v>       0.48362136       0.11981880       0.49631347 </v>
   <v>       0.63068552       0.11944735       0.49639636 </v>
   <v>       0.67978223       0.21797576       0.49799502 </v>
   <v>       0.43972961       0.88544593       0.39273261 </v>
   <v>       0.11320497       0.55904847       0.39230129 </v>
   <v>       0.43978734       0.55857365       0.39276206 </v>
   <v>       0.51899478       0.04232676       0.60209276 </v>
   <v>       0.95668315       0.48068614       0.60188642 </v>
   <v>       0.51904898       0.48119040       0.60219772 </v>
  </varray>
 </structure>
</modeling>
