<?xml version="1.0" encoding="ISO-8859-1"?>
<modeling>
 <generator>
  <i name="program" type="string">vasp </i>
  <i name="version" type="string">5.4.4.18Apr17-6-g9f103f2a35  </i>
  <i name="subversion" type="string">(build Jun 07 2020 16:50:00) complex            parallel </i>
  <i name="platform" type="string">LinuxIFC </i>
  <i name="date" type="string">2023 02 18 </i>
  <i name="time" type="string">15:38:22 </i>
 </generator>
 <incar>
  <i type="string" name="SYSTEM">Simulation for cell shape cell volume r</i>
  <i type="int" name="ISTART">     1</i>
  <i type="string" name="PREC">high</i>
  <i type="string" name="ALGO">48</i>
  <i type="int" name="ICHARG">    11</i>
  <i type="int" name="NELM">   200</i>
  <i type="int" name="IBRION">    -1</i>
  <i name="EDIFF">      0.00001000</i>
  <i name="EDIFFG">     -0.01000000</i>
  <i type="int" name="NSW">     0</i>
  <i type="int" name="ISIF">     2</i>
  <i name="ENCUT">    500.00000000</i>
  <i name="POTIM">      0.30000000</i>
  <i type="string" name="LREAL">A</i>
  <i type="int" name="ISMEAR">     0</i>
  <i name="SIGMA">      0.01000000</i>
  <i type="int" name="NWRITE">     0</i>
  <i type="logical" name="LWAVE"> F  </i>
  <i type="logical" name="LCHARG"> F  </i>
  <v type="int" name="KPOINT_BSE">    -1     0     0     0</v>
  <i type="int" name="NELM">   200</i>
  <i type="string" name="GGA">PE</i>
 </incar>
 <structure name="primitive_cell" >
  <crystal>
   <varray name="basis" >
    <v>      21.78516938       0.00254130       0.00000000 </v>
    <v>     -10.89040693      18.92516487       0.00000000 </v>
    <v>       0.00000000       0.00000000      20.00000000 </v>
   </varray>
   <i name="volume">   8246.31195995 </i>
   <varray name="rec_basis" >
    <v>       0.04589971       0.02641279       0.00000000 </v>
    <v>      -0.00000616       0.05283615       0.00000000 </v>
    <v>       0.00000000       0.00000000       0.05000000 </v>
   </varray>
  </crystal>
  <varray name="positions" >
   <v>      -0.48816982      -0.05496743      -0.47888078 </v>
   <v>       0.45733663      -0.06899146       0.48175411 </v>
   <v>      -0.45017134       0.01099513      -0.45479645 </v>
   <v>       0.41526190      -0.13759449       0.45714419 </v>
   <v>       0.43864343      -0.01691185       0.46717165 </v>
   <v>      -0.46636421       0.06390323      -0.47319797 </v>
   <v>      -0.39336051       0.02456025      -0.40517262 </v>
   <v>       0.47718347       0.04891744       0.48865042 </v>
   <v>      -0.37189450      -0.01630630      -0.39347219 </v>
   <v>       0.49989454      -0.16993875       0.44142679 </v>
   <v>       0.43732712      -0.18634269       0.44514041 </v>
   <v>       0.36343656      -0.15325507       0.44960260 </v>
   <v>       0.39190158      -0.02935057       0.43695845 </v>
   <v>      -0.37194663       0.07562117      -0.37733694 </v>
   <v>      -0.42218958       0.13495054      -0.45527257 </v>
   <v>      -0.36929307       0.15350696      -0.45638227 </v>
   <v>       0.37878309      -0.26200846       0.43909528 </v>
   <v>      -0.44507923       0.18215574      -0.43888074 </v>
   <v>       0.28549905      -0.24821204       0.43966460 </v>
   <v>       0.45748768      -0.29180091       0.44042945 </v>
   <v>       0.30653272      -0.28431831       0.43854078 </v>
   <v>       0.49262388       0.16402485      -0.42842913 </v>
   <v>       0.40034304      -0.31272213       0.43896883 </v>
   <v>      -0.29321893       0.24684091      -0.43465806 </v>
   <v>      -0.38770424       0.25853054      -0.43604050 </v>
   <v>       0.25578952      -0.35645550       0.43861005 </v>
   <v>      -0.31517297       0.28219299      -0.43556828 </v>
   <v>       0.35060236      -0.38477167       0.43902412 </v>
   <v>       0.47490871      -0.36945960       0.44995382 </v>
   <v>       0.27830708      -0.40615963       0.43852227 </v>
   <v>       0.16300053      -0.32813828       0.44079829 </v>
   <v>       0.17977554      -0.37396291       0.44424909 </v>
   <v>      -0.41068554       0.30815341      -0.43606391 </v>
   <v>      -0.46800055       0.28637462      -0.43546590 </v>
   <v>       0.43886550      -0.42118549       0.45729495 </v>
   <v>       0.36804226      -0.44319610       0.44489163 </v>
   <v>      -0.26549133       0.35462700      -0.43604428 </v>
   <v>      -0.17079863       0.32936427      -0.42885839 </v>
   <v>       0.24219427      -0.46316578       0.43973438 </v>
   <v>      -0.18891209       0.37354881      -0.43887129 </v>
   <v>      -0.42931737      -0.39814932       0.43715821 </v>
   <v>       0.46550301      -0.46342448       0.48163405 </v>
   <v>       0.13111065      -0.44486759       0.45562181 </v>
   <v>      -0.36196495       0.38048646      -0.43660864 </v>
   <v>       0.32213809       0.49440140       0.44065502 </v>
   <v>      -0.28933281       0.40330609      -0.43612377 </v>
   <v>       0.14705654      -0.48066108       0.44745826 </v>
   <v>      -0.46368684      -0.44494744       0.46709646 </v>
   <v>      -0.48556342       0.36241072      -0.45774573 </v>
   <v>       0.42502615       0.48203947      -0.47924859 </v>
   <v>       0.04823287      -0.43177525      -0.47958779 </v>
   <v>       0.06250824      -0.47185288       0.48083826 </v>
   <v>      -0.14152504       0.44359127      -0.45465978 </v>
   <v>       0.00902626      -0.35475645      -0.39394347 </v>
   <v>      -0.25400797       0.46049322      -0.43570154 </v>
   <v>      -0.38117667       0.43778721      -0.43985699 </v>
   <v>      -0.45121930       0.41513625      -0.45644220 </v>
   <v>      -0.43638836      -0.48374249       0.48828947 </v>
   <v>      -0.05513961       0.42947664       0.48876923 </v>
   <v>      -0.16018989       0.47781301      -0.45541013 </v>
   <v>       0.43951490       0.36515336      -0.37857725 </v>
   <v>       0.45293760       0.44374060      -0.45548921 </v>
   <v>      -0.01772109      -0.46009236      -0.45505136 </v>
   <v>      -0.07039917       0.47067094      -0.47302938 </v>
   <v>      -0.03159206      -0.41704331      -0.40550715 </v>
   <v>      -0.47798761       0.45964940      -0.47400016 </v>
   <v>       0.01069588       0.45728519       0.46666665 </v>
   <v>      -0.33719982       0.49993758      -0.42946349 </v>
   <v>       0.02333470       0.42333607       0.43621543 </v>
   <v>       0.40984592       0.38704709      -0.40586549 </v>
   <v>       0.34771436       0.36622233      -0.39353798 </v>
   <v>      -0.08270946      -0.44679907      -0.37759760 </v>
  </varray>
 </structure>
 <varray name="primitive_index" >
  <v type="int" >        1 </v>
  <v type="int" >       41 </v>
  <v type="int" >       28 </v>
  <v type="int" >        8 </v>
  <v type="int" >       40 </v>
  <v type="int" >       27 </v>
  <v type="int" >       29 </v>
  <v type="int" >        7 </v>
  <v type="int" >       52 </v>
  <v type="int" >       46 </v>
  <v type="int" >       37 </v>
  <v type="int" >       68 </v>
  <v type="int" >       67 </v>
  <v type="int" >       61 </v>
  <v type="int" >        2 </v>
  <v type="int" >       62 </v>
  <v type="int" >       36 </v>
  <v type="int" >       39 </v>
  <v type="int" >       55 </v>
  <v type="int" >       56 </v>
  <v type="int" >       16 </v>
  <v type="int" >       49 </v>
  <v type="int" >       17 </v>
  <v type="int" >       58 </v>
  <v type="int" >       38 </v>
  <v type="int" >       15 </v>
  <v type="int" >       23 </v>
  <v type="int" >       13 </v>
  <v type="int" >       70 </v>
  <v type="int" >       14 </v>
  <v type="int" >       48 </v>
  <v type="int" >       19 </v>
  <v type="int" >       24 </v>
  <v type="int" >       59 </v>
  <v type="int" >       10 </v>
  <v type="int" >       18 </v>
  <v type="int" >       22 </v>
  <v type="int" >       51 </v>
  <v type="int" >       57 </v>
  <v type="int" >       26 </v>
  <v type="int" >       69 </v>
  <v type="int" >       43 </v>
  <v type="int" >       12 </v>
  <v type="int" >       20 </v>
  <v type="int" >       47 </v>
  <v type="int" >       21 </v>
  <v type="int" >       72 </v>
  <v type="int" >       42 </v>
  <v type="int" >       64 </v>
  <v type="int" >        3 </v>
  <v type="int" >        5 </v>
  <v type="int" >       45 </v>
  <v type="int" >        6 </v>
  <v type="int" >       54 </v>
  <v type="int" >       60 </v>
  <v type="int" >       25 </v>
  <v type="int" >        4 </v>
  <v type="int" >        9 </v>
  <v type="int" >       11 </v>
  <v type="int" >       66 </v>
  <v type="int" >       63 </v>
  <v type="int" >       31 </v>
  <v type="int" >       34 </v>
  <v type="int" >       33 </v>
  <v type="int" >       35 </v>
  <v type="int" >       30 </v>
  <v type="int" >       44 </v>
  <v type="int" >       50 </v>
  <v type="int" >       71 </v>
  <v type="int" >       32 </v>
  <v type="int" >       53 </v>
  <v type="int" >       65 </v>
 </varray>
 <kpoints>
  <generation param="listgenerated">
   <i name="divisions" type="int">      20 </i>
   <v>       0.00000000       0.00000000       0.00000000 </v>
   <v>       0.50000000       0.00000000       0.00000000 </v>
   <v>       0.33333333       0.33333333       0.00000000 </v>
   <v>       0.00000000       0.00000000       0.00000000 </v>
  </generation>
  <varray name="kpointlist" >
   <v>       0.00000000       0.00000000       0.00000000 </v>
   <v>       0.02631579       0.00000000       0.00000000 </v>
   <v>       0.05263158       0.00000000       0.00000000 </v>
   <v>       0.07894737       0.00000000       0.00000000 </v>
   <v>       0.10526316       0.00000000       0.00000000 </v>
   <v>       0.13157895       0.00000000       0.00000000 </v>
   <v>       0.15789474       0.00000000       0.00000000 </v>
   <v>       0.18421053       0.00000000       0.00000000 </v>
   <v>       0.21052632       0.00000000       0.00000000 </v>
   <v>       0.23684211       0.00000000       0.00000000 </v>
   <v>       0.26315789       0.00000000       0.00000000 </v>
   <v>       0.28947368       0.00000000       0.00000000 </v>
   <v>       0.31578947       0.00000000       0.00000000 </v>
   <v>       0.34210526       0.00000000       0.00000000 </v>
   <v>       0.36842105       0.00000000       0.00000000 </v>
   <v>       0.39473684       0.00000000       0.00000000 </v>
   <v>       0.42105263       0.00000000       0.00000000 </v>
   <v>       0.44736842       0.00000000       0.00000000 </v>
   <v>       0.47368421       0.00000000       0.00000000 </v>
   <v>       0.50000000       0.00000000       0.00000000 </v>
   <v>       0.50000000       0.00000000       0.00000000 </v>
   <v>       0.49122807       0.01754386       0.00000000 </v>
   <v>       0.48245614       0.03508772       0.00000000 </v>
   <v>       0.47368421       0.05263158       0.00000000 </v>
   <v>       0.46491228       0.07017544       0.00000000 </v>
   <v>       0.45614035       0.08771930       0.00000000 </v>
   <v>       0.44736842       0.10526316       0.00000000 </v>
   <v>       0.43859649       0.12280702       0.00000000 </v>
   <v>       0.42982456       0.14035088       0.00000000 </v>
   <v>       0.42105263       0.15789474       0.00000000 </v>
   <v>       0.41228070       0.17543860       0.00000000 </v>
   <v>       0.40350877       0.19298246       0.00000000 </v>
   <v>       0.39473684       0.21052632       0.00000000 </v>
   <v>       0.38596491       0.22807018       0.00000000 </v>
   <v>       0.37719298       0.24561404       0.00000000 </v>
   <v>       0.36842105       0.26315789       0.00000000 </v>
   <v>       0.35964912       0.28070175       0.00000000 </v>
   <v>       0.35087719       0.29824561       0.00000000 </v>
   <v>       0.34210526       0.31578947       0.00000000 </v>
   <v>       0.33333333       0.33333333       0.00000000 </v>
   <v>       0.33333333       0.33333333       0.00000000 </v>
   <v>       0.31578947       0.31578947       0.00000000 </v>
   <v>       0.29824561       0.29824561       0.00000000 </v>
   <v>       0.28070175       0.28070175       0.00000000 </v>
   <v>       0.26315789       0.26315789       0.00000000 </v>
   <v>       0.24561404       0.24561404       0.00000000 </v>
   <v>       0.22807018       0.22807018       0.00000000 </v>
   <v>       0.21052632       0.21052632       0.00000000 </v>
   <v>       0.19298246       0.19298246       0.00000000 </v>
   <v>       0.17543860       0.17543860       0.00000000 </v>
   <v>       0.15789474       0.15789474       0.00000000 </v>
   <v>       0.14035088       0.14035088       0.00000000 </v>
   <v>       0.12280702       0.12280702       0.00000000 </v>
   <v>       0.10526316       0.10526316       0.00000000 </v>
   <v>       0.08771930       0.08771930       0.00000000 </v>
   <v>       0.07017544       0.07017544       0.00000000 </v>
   <v>       0.05263158       0.05263158       0.00000000 </v>
   <v>       0.03508772       0.03508772       0.00000000 </v>
   <v>       0.01754386       0.01754386       0.00000000 </v>
   <v>       0.00000000       0.00000000       0.00000000 </v>
  </varray>
  <varray name="weights" >
   <v>       0.01666667 </v>
   <v>       0.01666667 </v>
   <v>       0.01666667 </v>
   <v>       0.01666667 </v>
   <v>       0.01666667 </v>
   <v>       0.01666667 </v>
   <v>       0.01666667 </v>
   <v>       0.01666667 </v>
   <v>       0.01666667 </v>
   <v>       0.01666667 </v>
   <v>       0.01666667 </v>
   <v>       0.01666667 </v>
   <v>       0.01666667 </v>
   <v>       0.01666667 </v>
   <v>       0.01666667 </v>
   <v>       0.01666667 </v>
   <v>       0.01666667 </v>
   <v>       0.01666667 </v>
   <v>       0.01666667 </v>
   <v>       0.01666667 </v>
   <v>       0.01666667 </v>
   <v>       0.01666667 </v>
   <v>       0.01666667 </v>
   <v>       0.01666667 </v>
   <v>       0.01666667 </v>
   <v>       0.01666667 </v>
   <v>       0.01666667 </v>
   <v>       0.01666667 </v>
   <v>       0.01666667 </v>
   <v>       0.01666667 </v>
   <v>       0.01666667 </v>
   <v>       0.01666667 </v>
   <v>       0.01666667 </v>
   <v>       0.01666667 </v>
   <v>       0.01666667 </v>
   <v>       0.01666667 </v>
   <v>       0.01666667 </v>
   <v>       0.01666667 </v>
   <v>       0.01666667 </v>
   <v>       0.01666667 </v>
   <v>       0.01666667 </v>
   <v>       0.01666667 </v>
   <v>       0.01666667 </v>
   <v>       0.01666667 </v>
   <v>       0.01666667 </v>
   <v>       0.01666667 </v>
   <v>       0.01666667 </v>
   <v>       0.01666667 </v>
   <v>       0.01666667 </v>
   <v>       0.01666667 </v>
   <v>       0.01666667 </v>
   <v>       0.01666667 </v>
   <v>       0.01666667 </v>
   <v>       0.01666667 </v>
   <v>       0.01666667 </v>
   <v>       0.01666667 </v>
   <v>       0.01666667 </v>
   <v>       0.01666667 </v>
   <v>       0.01666667 </v>
   <v>       0.01666667 </v>
  </varray>
 </kpoints>
 <parameters>
  <separator name="general" >
   <i type="string" name="SYSTEM">Simulation for cell shape cell volume r</i>
   <i type="logical" name="LCOMPAT"> F  </i>
  </separator>
  <separator name="electronic" >
   <i type="string" name="PREC">high</i>
   <i name="ENMAX">    500.00000000</i>
   <i name="ENAUG">    644.87300000</i>
   <i name="EDIFF">      0.00001000</i>
   <i type="int" name="IALGO">    38</i>
   <i type="int" name="IWAVPR">    10</i>
   <i type="int" name="NBANDS">   176</i>
   <i name="NELECT">    264.00000000</i>
   <i type="int" name="TURBO">     0</i>
   <i type="int" name="IRESTART">     0</i>
   <i type="int" name="NREBOOT">     0</i>
   <i type="int" name="NMIN">     0</i>
   <i name="EREF">      0.00000000</i>
   <separator name="electronic smearing" >
    <i type="int" name="ISMEAR">     0</i>
    <i name="SIGMA">      0.01000000</i>
    <i name="KSPACING">      0.50000000</i>
    <i type="logical" name="KGAMMA"> T  </i>
   </separator>
   <separator name="electronic projectors" >
    <i type="logical" name="LREAL"> T  </i>
    <v name="ROPT">     -0.00040000     -0.00040000     -0.00040000     -0.00040000</v>
    <i type="int" name="LMAXPAW">  -100</i>
    <i type="int" name="LMAXMIX">     2</i>
    <i type="logical" name="NLSPLINE"> F  </i>
   </separator>
   <separator name="electronic startup" >
    <i type="int" name="ISTART">     1</i>
    <i type="int" name="ICHARG">    11</i>
    <i type="int" name="INIWAV">     1</i>
   </separator>
   <separator name="electronic spin" >
    <i type="int" name="ISPIN">     1</i>
    <i type="logical" name="LNONCOLLINEAR"> F  </i>
    <v name="MAGMOM">      1.00000000      1.00000000      1.00000000      1.00000000      1.00000000      1.00000000      1.00000000      1.00000000      1.00000000      1.00000000      1.00000000      1.00000000      1.00000000      1.00000000      1.00000000      1.00000000      1.00000000      1.00000000      1.00000000      1.00000000
      1.00000000      1.00000000      1.00000000      1.00000000      1.00000000      1.00000000      1.00000000      1.00000000      1.00000000      1.00000000      1.00000000      1.00000000      1.00000000      1.00000000      1.00000000      1.00000000      1.00000000      1.00000000      1.00000000      1.00000000
      1.00000000      1.00000000      1.00000000      1.00000000      1.00000000      1.00000000      1.00000000      1.00000000      1.00000000      1.00000000      1.00000000      1.00000000      1.00000000      1.00000000      1.00000000      1.00000000      1.00000000      1.00000000      1.00000000      1.00000000
      1.00000000      1.00000000      1.00000000      1.00000000      1.00000000      1.00000000      1.00000000      1.00000000      1.00000000      1.00000000      1.00000000      1.00000000</v>
    <i name="NUPDOWN">     -1.00000000</i>
    <i type="logical" name="LSORBIT"> F  </i>
    <v name="SAXIS">      0.00000000      0.00000000      1.00000000</v>
    <i type="logical" name="LSPIRAL"> F  </i>
    <v name="QSPIRAL">      0.00000000      0.00000000      0.00000000</v>
    <i type="logical" name="LZEROZ"> F  </i>
   </separator>
   <separator name="electronic exchange-correlation" >
    <i type="logical" name="LASPH"> F  </i>
    <i type="logical" name="LMETAGGA"> F  </i>
   </separator>
   <separator name="electronic convergence" >
    <i type="int" name="NELM">   200</i>
    <i type="int" name="NELMDL">     0</i>
    <i type="int" name="NELMIN">     2</i>
    <i name="ENINI">    500.00000000</i>
    <separator name="electronic convergence detail" >
     <i type="logical" name="LDIAG"> T  </i>
     <i type="logical" name="LSUBROT"> F  </i>
     <i name="WEIMIN">      0.00000000</i>
     <i name="EBREAK">      0.00000001</i>
     <i name="DEPER">      0.30000000</i>
     <i type="int" name="NRMM">     4</i>
     <i name="TIME">      0.40000000</i>
    </separator>
   </separator>
   <separator name="electronic mixer" >
    <i name="AMIX">      0.40000000</i>
    <i name="BMIX">      1.00000000</i>
    <i name="AMIN">      0.10000000</i>
    <i name="AMIX_MAG">      1.60000000</i>
    <i name="BMIX_MAG">      1.00000000</i>
    <separator name="electronic mixer details" >
     <i type="int" name="IMIX">     4</i>
     <i type="logical" name="MIXFIRST"> F  </i>
     <i type="int" name="MAXMIX">   -45</i>
     <i name="WC">    100.00000000</i>
     <i type="int" name="INIMIX">     1</i>
     <i type="int" name="MIXPRE">     1</i>
     <i type="int" name="MREMOVE">     5</i>
    </separator>
   </separator>
   <separator name="electronic dipolcorrection" >
    <i type="logical" name="LDIPOL"> F  </i>
    <i type="logical" name="LMONO"> F  </i>
    <i type="int" name="IDIPOL">     0</i>
    <i name="EPSILON">      1.00000000</i>
    <v name="DIPOL">   -100.00000000   -100.00000000   -100.00000000</v>
    <i name="EFIELD">      0.00000000</i>
   </separator>
  </separator>
  <separator name="grids" >
   <i type="int" name="NGX">   160</i>
   <i type="int" name="NGY">   160</i>
   <i type="int" name="NGZ">   150</i>
   <i type="int" name="NGXF">   240</i>
   <i type="int" name="NGYF">   250</i>
   <i type="int" name="NGZF">   224</i>
   <i type="logical" name="ADDGRID"> F  </i>
  </separator>
  <separator name="ionic" >
   <i type="int" name="NSW">     0</i>
   <i type="int" name="IBRION">    -1</i>
   <i type="int" name="MDALGO">     0</i>
   <i type="int" name="ISIF">     2</i>
   <i name="PSTRESS">      0.00000000</i>
   <i name="EDIFFG">     -0.01000000</i>
   <i type="int" name="NFREE">     0</i>
   <i name="POTIM">      0.30000000</i>
   <i name="SMASS">     -3.00000000</i>
   <i name="SCALEE">      1.00000000</i>
  </separator>
  <separator name="ionic md" >
   <i name="TEBEG">      0.00010000</i>
   <i name="TEEND">      0.00010000</i>
   <i type="int" name="NBLOCK">     1</i>
   <i type="int" name="KBLOCK">     1</i>
   <i type="int" name="NPACO">   256</i>
   <i name="APACO">     16.00000000</i>
  </separator>
  <separator name="symmetry" >
   <i type="int" name="ISYM">     2</i>
   <i name="SYMPREC">      0.00001000</i>
  </separator>
  <separator name="dos" >
   <i type="int" name="LORBIT">     0</i>
   <v name="RWIGS">     -1.00000000     -1.00000000     -1.00000000     -1.00000000</v>
   <i type="int" name="NEDOS">   301</i>
   <i name="EMIN">     10.00000000</i>
   <i name="EMAX">    -10.00000000</i>
   <i name="EFERMI">      0.00000000</i>
  </separator>
  <separator name="writing" >
   <i type="int" name="NWRITE">     0</i>
   <i type="logical" name="LWAVE"> F  </i>
   <i type="logical" name="LDOWNSAMPLE"> F  </i>
   <i type="logical" name="LCHARG"> F  </i>
   <i type="logical" name="LPARD"> F  </i>
   <i type="logical" name="LVTOT"> F  </i>
   <i type="logical" name="LVHAR"> F  </i>
   <i type="logical" name="LELF"> F  </i>
   <i type="logical" name="LOPTICS"> F  </i>
   <v name="STM">      0.00000000      0.00000000      0.00000000      0.00000000      0.00000000      0.00000000      0.00000000</v>
  </separator>
  <separator name="performance" >
   <i type="int" name="NPAR">    16</i>
   <i type="int" name="NSIM">     4</i>
   <i type="int" name="NBLK">    -1</i>
   <i type="logical" name="LPLANE"> T  </i>
   <i type="logical" name="LSCALAPACK"> T  </i>
   <i type="logical" name="LSCAAWARE"> F  </i>
   <i type="logical" name="LSCALU"> F  </i>
   <i type="logical" name="LASYNC"> F  </i>
   <i type="logical" name="LORBITALREAL"> F  </i>
  </separator>
  <separator name="miscellaneous" >
   <i type="int" name="IDIOT">     3</i>
   <i type="int" name="ISPECIAL">     0</i>
   <i type="logical" name="LMUSIC"> F  </i>
   <v name="POMASS">     14.00100000     12.01100000     16.00000000      1.00000000</v>
   <v name="DARWINR">      0.00000000      0.00000000      0.00000000      0.00000000</v>
   <v name="DARWINV">      1.00000000      1.00000000      1.00000000      1.00000000</v>
   <i type="logical" name="LCORR"> T  </i>
  </separator>
  <i type="logical" name="GGA_COMPAT"> T  </i>
  <i type="logical" name="LBERRY"> F  </i>
  <i type="int" name="ICORELEVEL">     0</i>
  <i type="logical" name="LDAU"> F  </i>
  <i type="int" name="I_CONSTRAINED_M">     0</i>
  <separator name="electronic exchange-correlation" >
   <i type="string" name="GGA">PE</i>
   <i type="int" name="VOSKOWN">     0</i>
   <i type="logical" name="LHFCALC"> F  </i>
   <i type="string" name="PRECFOCK"></i>
   <i type="logical" name="LSYMGRAD"> F  </i>
   <i type="logical" name="LHFONE"> F  </i>
   <i type="logical" name="LRHFCALC"> F  </i>
   <i type="logical" name="LTHOMAS"> F  </i>
   <i type="logical" name="LMODELHF"> F  </i>
   <i name="ENCUT4O">     -1.00000000</i>
   <i type="int" name="EXXOEP">     0</i>
   <i type="int" name="FOURORBIT">     0</i>
   <i name="AEXX">      0.00000000</i>
   <i name="HFALPHA">      0.00000000</i>
   <i name="MCALPHA">      0.00000000</i>
   <i name="ALDAX">      1.00000000</i>
   <i name="AGGAX">      1.00000000</i>
   <i name="ALDAC">      1.00000000</i>
   <i name="AGGAC">      1.00000000</i>
   <i type="int" name="NKREDX">     1</i>
   <i type="int" name="NKREDY">     1</i>
   <i type="int" name="NKREDZ">     1</i>
   <i type="logical" name="SHIFTRED"> F  </i>
   <i type="logical" name="ODDONLY"> F  </i>
   <i type="logical" name="EVENONLY"> F  </i>
   <i type="int" name="LMAXFOCK">     0</i>
   <i type="int" name="NMAXFOCKAE">     0</i>
   <i type="logical" name="LFOCKAEDFT"> F  </i>
   <i name="HFSCREEN">      0.00000000</i>
   <i name="HFSCREENC">      0.00000000</i>
   <i type="int" name="NBANDSGWLOW">     0</i>
  </separator>
  <separator name="vdW DFT" >
   <i type="logical" name="LUSE_VDW"> F  </i>
   <i name="Zab_VDW">     -0.84910000</i>
   <i name="PARAM1">      0.12340000</i>
   <i name="PARAM2">      1.00000000</i>
   <i name="PARAM3">      0.00000000</i>
  </separator>
  <separator name="model GW" >
   <i type="int" name="MODEL_GW">     0</i>
   <i name="MODEL_EPS0">     68.71926633</i>
   <i name="MODEL_ALPHA">      1.00000000</i>
  </separator>
  <separator name="linear response parameters" >
   <i type="logical" name="LEPSILON"> F  </i>
   <i type="logical" name="LRPA"> F  </i>
   <i type="logical" name="LNABLA"> F  </i>
   <i type="logical" name="LVEL"> F  </i>
   <i type="int" name="KINTER">     0</i>
   <i name="CSHIFT">      0.10000000</i>
   <i name="OMEGAMAX">     -1.00000000</i>
   <i name="DEG_THRESHOLD">      0.00200000</i>
   <i name="RTIME">     -0.10000000</i>
   <i name="WPLASMAI">      0.00000000</i>
   <v name="DFIELD">      0.00000000      0.00000000      0.00000000</v>
   <v name="WPLASMA">      0.00000000      0.00000000      0.00000000      0.00000000      0.00000000      0.00000000      0.00000000      0.00000000      0.00000000</v>
  </separator>
  <separator name="orbital magnetization" >
   <i type="logical" name="NUCIND"> F  </i>
   <v name="MAGPOS">      0.00000000      0.00000000      0.00000000</v>
   <i type="logical" name="LNICSALL"> T  </i>
   <i type="logical" name="ORBITALMAG"> F  </i>
   <i type="logical" name="LMAGBLOCH"> F  </i>
   <i type="logical" name="LCHIMAG"> F  </i>
   <i type="logical" name="LGAUGE"> T  </i>
   <i type="int" name="MAGATOM">     0</i>
   <v name="MAGDIPOL">      0.00000000      0.00000000      0.00000000</v>
   <v name="AVECCONST">      0.00000000      0.00000000      0.00000000</v>
  </separator>
  <separator name="response functions" >
   <i type="logical" name="LADDER"> F  </i>
   <i type="logical" name="LRPAFORCE"> F  </i>
   <i type="logical" name="LFXC"> F  </i>
   <i type="logical" name="LHARTREE"> T  </i>
   <i type="int" name="IBSE">     0</i>
   <v type="int" name="KPOINT">    -1     0     0     0</v>
   <i type="logical" name="LTCTE"> F  </i>
   <i type="logical" name="LTETE"> F  </i>
   <i type="logical" name="LTRIPLET"> F  </i>
   <i type="logical" name="LFXCEPS"> F  </i>
   <i type="logical" name="LFXHEG"> F  </i>
   <i type="int" name="NATURALO">     2</i>
   <i type="logical" name="L2ORDER"> F  </i>
   <i type="logical" name="LMP2LT"> F  </i>
   <i type="logical" name="LUSEW"> F  </i>
   <i name="ENCUTGW">     -2.00000000</i>
   <i name="ENCUTGWSOFT">     -2.00000000</i>
   <i name="ENCUTLF">     -1.00000000</i>
   <i type="int" name="LMAXMP2">    -1</i>
   <i name="SCISSOR">      0.00000000</i>
   <i type="int" name="NOMEGA">     0</i>
   <i type="int" name="NOMEGAR">     0</i>
   <i type="int" name="NBANDSGW">    -1</i>
   <i type="int" name="NBANDSO">    -1</i>
   <i type="int" name="NBANDSV">    -1</i>
   <i type="int" name="NELM">   200</i>
   <i type="int" name="NELMHF">     1</i>
   <i type="int" name="DIM">     3</i>
   <i type="int" name="ANTIRES">     0</i>
   <i name="OMEGAMAX">    -30.00000000</i>
   <i name="OMEGAMIN">    -30.00000000</i>
   <i name="OMEGATL">   -200.00000000</i>
   <i type="int" name="OMEGAGRID">   140</i>
   <i name="CSHIFT">     -0.10000000</i>
   <i type="logical" name="SELFENERGY"> F  </i>
   <i type="logical" name="LSPECTRAL"> F  </i>
   <i type="logical" name="LSPECTRALGW"> F  </i>
   <i type="logical" name="LSINGLES"> F  </i>
   <i type="logical" name="LFERMIGW"> F  </i>
   <i type="logical" name="ODDONLYGW"> F  </i>
   <i type="logical" name="EVENONLYGW"> F  </i>
   <i type="int" name="NKREDLFX">     1</i>
   <i type="int" name="NKREDLFY">     1</i>
   <i type="int" name="NKREDLFZ">     1</i>
   <i type="int" name="MAXMEM">  2800</i>
   <i type="int" name="TELESCOPE">     0</i>
   <i type="int" name="TAUPAR">     1</i>
   <i type="int" name="OMEGAPAR">    -1</i>
   <i name="LAMBDA">      1.00000000</i>
  </separator>
  <separator name="External order field" >
   <i name="OFIELD_KAPPA">      0.00000000</i>
   <v name="OFIELD_K">      0.00000000      0.00000000      0.00000000</v>
   <i name="OFIELD_Q6_NEAR">      0.00000000</i>
   <i name="OFIELD_Q6_FAR">      0.00000000</i>
   <i name="OFIELD_A">      0.00000000</i>
  </separator>
  <separator name="solvation model" >
   <i type="logical" name="LSOL"> F  </i>
  </separator>
 </parameters>
 <atominfo>
  <atoms>      72 </atoms>
  <types>       4 </types>
  <array name="atoms" >
   <dimension dim="1">ion</dimension>
   <field type="string">element</field>
   <field type="int">atomtype</field>
   <set>
    <rc><c>N </c><c>   1</c></rc>
    <rc><c>N </c><c>   1</c></rc>
    <rc><c>N </c><c>   1</c></rc>
    <rc><c>N </c><c>   1</c></rc>
    <rc><c>N </c><c>   1</c></rc>
    <rc><c>N </c><c>   1</c></rc>
    <rc><c>N </c><c>   1</c></rc>
    <rc><c>N </c><c>   1</c></rc>
    <rc><c>N </c><c>   1</c></rc>
    <rc><c>N </c><c>   1</c></rc>
    <rc><c>N </c><c>   1</c></rc>
    <rc><c>N </c><c>   1</c></rc>
    <rc><c>C </c><c>   2</c></rc>
    <rc><c>C </c><c>   2</c></rc>
    <rc><c>C </c><c>   2</c></rc>
    <rc><c>C </c><c>   2</c></rc>
    <rc><c>C </c><c>   2</c></rc>
    <rc><c>C </c><c>   2</c></rc>
    <rc><c>C </c><c>   2</c></rc>
    <rc><c>C </c><c>   2</c></rc>
    <rc><c>C </c><c>   2</c></rc>
    <rc><c>C </c><c>   2</c></rc>
    <rc><c>C </c><c>   2</c></rc>
    <rc><c>C </c><c>   2</c></rc>
    <rc><c>C </c><c>   2</c></rc>
    <rc><c>C </c><c>   2</c></rc>
    <rc><c>C </c><c>   2</c></rc>
    <rc><c>C </c><c>   2</c></rc>
    <rc><c>C </c><c>   2</c></rc>
    <rc><c>C </c><c>   2</c></rc>
    <rc><c>C </c><c>   2</c></rc>
    <rc><c>C </c><c>   2</c></rc>
    <rc><c>C </c><c>   2</c></rc>
    <rc><c>C </c><c>   2</c></rc>
    <rc><c>C </c><c>   2</c></rc>
    <rc><c>C </c><c>   2</c></rc>
    <rc><c>C </c><c>   2</c></rc>
    <rc><c>C </c><c>   2</c></rc>
    <rc><c>C </c><c>   2</c></rc>
    <rc><c>C </c><c>   2</c></rc>
    <rc><c>C </c><c>   2</c></rc>
    <rc><c>C </c><c>   2</c></rc>
    <rc><c>C </c><c>   2</c></rc>
    <rc><c>C </c><c>   2</c></rc>
    <rc><c>C </c><c>   2</c></rc>
    <rc><c>O </c><c>   3</c></rc>
    <rc><c>O </c><c>   3</c></rc>
    <rc><c>O </c><c>   3</c></rc>
    <rc><c>O </c><c>   3</c></rc>
    <rc><c>O </c><c>   3</c></rc>
    <rc><c>O </c><c>   3</c></rc>
    <rc><c>O </c><c>   3</c></rc>
    <rc><c>O </c><c>   3</c></rc>
    <rc><c>O </c><c>   3</c></rc>
    <rc><c>H </c><c>   4</c></rc>
    <rc><c>H </c><c>   4</c></rc>
    <rc><c>H </c><c>   4</c></rc>
    <rc><c>H </c><c>   4</c></rc>
    <rc><c>H </c><c>   4</c></rc>
    <rc><c>H </c><c>   4</c></rc>
    <rc><c>H </c><c>   4</c></rc>
    <rc><c>H </c><c>   4</c></rc>
    <rc><c>H </c><c>   4</c></rc>
    <rc><c>H </c><c>   4</c></rc>
    <rc><c>H </c><c>   4</c></rc>
    <rc><c>H </c><c>   4</c></rc>
    <rc><c>H </c><c>   4</c></rc>
    <rc><c>H </c><c>   4</c></rc>
    <rc><c>H </c><c>   4</c></rc>
    <rc><c>H </c><c>   4</c></rc>
    <rc><c>H </c><c>   4</c></rc>
    <rc><c>H </c><c>   4</c></rc>
   </set>
  </array>
  <array name="atomtypes" >
   <dimension dim="1">type</dimension>
   <field type="int">atomspertype</field>
   <field type="string">element</field>
   <field>mass</field>
   <field>valence</field>
   <field type="string">pseudopotential</field>
   <set>
    <rc><c>  12</c><c>N </c><c>     14.00100000</c><c>      5.00000000</c><c>  PAW_PBE N 08Apr2002                   </c></rc>
    <rc><c>  33</c><c>C </c><c>     12.01100000</c><c>      4.00000000</c><c>  PAW_PBE C 08Apr2002                   </c></rc>
    <rc><c>   9</c><c>O </c><c>     16.00000000</c><c>      6.00000000</c><c>  PAW_PBE O 08Apr2002                   </c></rc>
    <rc><c>  18</c><c>H </c><c>      1.00000000</c><c>      1.00000000</c><c>  PAW_PBE H 15Jun2001                   </c></rc>
   </set>
  </array>
 </atominfo>
 <structure name="initialpos" >
  <crystal>
   <varray name="basis" >
    <v>      21.78516938       0.00254130       0.00000000 </v>
    <v>     -10.89040693      18.92516487       0.00000000 </v>
    <v>       0.00000000       0.00000000      20.00000000 </v>
   </varray>
   <i name="volume">   8246.31195995 </i>
   <varray name="rec_basis" >
    <v>       0.04589971       0.02641279       0.00000000 </v>
    <v>      -0.00000616       0.05283615       0.00000000 </v>
    <v>       0.00000000       0.00000000       0.05000000 </v>
   </varray>
  </crystal>
  <varray name="positions" >
   <v>       0.51183018       0.94503257       0.52111922 </v>
   <v>       0.57781042       0.13495054       0.54472743 </v>
   <v>       0.42502615       0.48203947       0.52075141 </v>
   <v>       0.54878070       0.41513625       0.54355780 </v>
   <v>       0.04823287       0.56822475       0.52041221 </v>
   <v>       0.85847496       0.44359127       0.54534022 </v>
   <v>       0.47718347       0.04891744       0.48865042 </v>
   <v>       0.41526190       0.86240551       0.45714419 </v>
   <v>       0.56361164       0.51625751       0.48828947 </v>
   <v>       0.43886550       0.57881451       0.45729495 </v>
   <v>       0.94486039       0.42947664       0.48876923 </v>
   <v>       0.13111065       0.55513241       0.45562181 </v>
   <v>       0.35060236       0.61522833       0.43902412 </v>
   <v>       0.27830708       0.59384037       0.43852227 </v>
   <v>       0.25578952       0.64354450       0.43861005 </v>
   <v>       0.30653272       0.71568169       0.43854078 </v>
   <v>       0.40034304       0.68727787       0.43896883 </v>
   <v>       0.36804226       0.55680390       0.44489163 </v>
   <v>       0.17977554       0.62603709       0.44424909 </v>
   <v>       0.63803505       0.38048646       0.56339136 </v>
   <v>       0.71066719       0.40330609       0.56387623 </v>
   <v>       0.73450867       0.35462700       0.56395572 </v>
   <v>       0.68482703       0.28219299       0.56443172 </v>
   <v>       0.58931446       0.30815341       0.56393609 </v>
   <v>       0.61882333       0.43778721       0.56014301 </v>
   <v>       0.81108791       0.37354881       0.56112871 </v>
   <v>       0.53363579       0.06390323       0.52680203 </v>
   <v>       0.54982866       0.01099513       0.54520355 </v>
   <v>       0.60663949       0.02456025       0.59482738 </v>
   <v>       0.52201239       0.45964940       0.52599984 </v>
   <v>       0.45293760       0.44374060       0.54451079 </v>
   <v>       0.40984592       0.38704709       0.59413451 </v>
   <v>       0.92960083       0.47067094       0.52697062 </v>
   <v>       0.98227891       0.53990764       0.54494864 </v>
   <v>       0.96840794       0.58295669       0.59449285 </v>
   <v>       0.37878309       0.73799154       0.43909528 </v>
   <v>       0.43732712       0.81365731       0.44514041 </v>
   <v>       0.61229576       0.25853054       0.56395950 </v>
   <v>       0.55492077       0.18215574       0.56111926 </v>
   <v>       0.43864343       0.98308815       0.46717165 </v>
   <v>       0.45733663       0.93100854       0.48175411 </v>
   <v>       0.53631316       0.55505256       0.46709646 </v>
   <v>       0.46550301       0.53657552       0.48163405 </v>
   <v>       0.01069588       0.45728519       0.46666665 </v>
   <v>       0.06250824       0.52814712       0.48083826 </v>
   <v>       0.49989454       0.83006125       0.44142679 </v>
   <v>       0.32213809       0.49440140       0.44065502 </v>
   <v>       0.16300053       0.67186172       0.44079829 </v>
   <v>       0.49262388       0.16402485       0.57157087 </v>
   <v>       0.66280018       0.49993758       0.57053651 </v>
   <v>       0.82920137       0.32936427       0.57114161 </v>
   <v>       0.62810550       0.98369370       0.60652781 </v>
   <v>       0.34771436       0.36622233       0.60646202 </v>
   <v>       0.00902626       0.64524355       0.60605653 </v>
   <v>       0.28549905       0.75178796       0.43966460 </v>
   <v>       0.45748768       0.70819909       0.44042945 </v>
   <v>       0.24219427       0.53683422       0.43973438 </v>
   <v>       0.70678107       0.24684091       0.56534194 </v>
   <v>       0.53199945       0.28637462       0.56453410 </v>
   <v>       0.74599203       0.46049322       0.56429846 </v>
   <v>       0.62805337       0.07562117       0.62266306 </v>
   <v>       0.63070693       0.15350696       0.54361773 </v>
   <v>       0.43951490       0.36515336       0.62142275 </v>
   <v>       0.51443658       0.36241072       0.54225427 </v>
   <v>       0.91729054       0.55320093       0.62240240 </v>
   <v>       0.83981011       0.47781301       0.54458987 </v>
   <v>       0.39190158       0.97064943       0.43695845 </v>
   <v>       0.36343656       0.84674493       0.44960260 </v>
   <v>       0.57068263       0.60185068       0.43715821 </v>
   <v>       0.47490871       0.63054040       0.44995382 </v>
   <v>       0.02333470       0.42333607       0.43621543 </v>
   <v>       0.14705654       0.51933892       0.44745826 </v>
  </varray>
 </structure>
 <calculation>
  <scstep>
   <time name="dav">  218.99  221.51</time>
   <time name="total">  219.12  221.65</time>
   <energy>
    <i name="alphaZ">     38.05168110 </i>
    <i name="ewald">  28653.94754117 </i>
    <i name="hartreedc"> -38670.21691076 </i>
    <i name="XCdc">   1001.74377315 </i>
    <i name="pawpsdc">  24999.85814835 </i>
    <i name="pawaedc"> -25057.54311033 </i>
    <i name="eentropy">     -0.00000000 </i>
    <i name="bandstr">  -3631.15685111 </i>
    <i name="atom">  12146.27975786 </i>
    <i name="e_fr_energy">   -519.03597058 </i>
    <i name="e_wo_entrp">   -519.03597058 </i>
    <i name="e_0_energy">   -519.03597058 </i>
   </energy>
  </scstep>
  <scstep>
   <time name="dav">  254.15  257.08</time>
   <time name="total">  254.15  257.08</time>
   <energy>
    <i name="e_fr_energy">   -519.76709116 </i>
    <i name="e_wo_entrp">   -519.76709116 </i>
    <i name="e_0_energy">   -519.76709116 </i>
   </energy>
  </scstep>
  <scstep>
   <time name="dav">  278.42  281.31</time>
   <time name="total">  278.43  281.31</time>
   <energy>
    <i name="e_fr_energy">   -519.78342978 </i>
    <i name="e_wo_entrp">   -519.78342978 </i>
    <i name="e_0_energy">   -519.78342978 </i>
   </energy>
  </scstep>
  <scstep>
   <time name="dav">  249.80  252.42</time>
   <time name="total">  249.80  252.43</time>
   <energy>
    <i name="e_fr_energy">   -519.78382256 </i>
    <i name="e_wo_entrp">   -519.78382256 </i>
    <i name="e_0_energy">   -519.78382256 </i>
   </energy>
  </scstep>
  <scstep>
   <time name="dav">  241.02  243.56</time>
   <time name="total">  241.03  243.56</time>
   <energy>
    <i name="e_fr_energy">   -519.78383901 </i>
    <i name="e_wo_entrp">   -519.78383901 </i>
    <i name="e_0_energy">   -519.78383901 </i>
   </energy>
  </scstep>
  <scstep>
   <time name="dav">  187.92  189.84</time>
   <time name="total">  187.92  189.84</time>
   <energy>
    <i name="alphaZ">     38.05168110 </i>
    <i name="ewald">  28653.94754117 </i>
    <i name="hartreedc"> -38670.21691076 </i>
    <i name="XCdc">   1001.74377315 </i>
    <i name="pawpsdc">  24999.85814835 </i>
    <i name="pawaedc"> -25057.54311033 </i>
    <i name="eentropy">     -0.00000000 </i>
    <i name="bandstr">  -3631.90472004 </i>
    <i name="atom">  12146.27975786 </i>
    <i name="e_fr_energy">   -519.78383951 </i>
    <i name="e_wo_entrp">   -519.78383951 </i>
    <i name="e_0_energy">   -519.78383951 </i>
   </energy>
  </scstep>
  <structure>
   <crystal>
    <varray name="basis" >
     <v>      21.78516938       0.00254130       0.00000000 </v>
     <v>     -10.89040693      18.92516487       0.00000000 </v>
     <v>       0.00000000       0.00000000      20.00000000 </v>
    </varray>
    <i name="volume">   8246.31195995 </i>
    <varray name="rec_basis" >
     <v>       0.04589971       0.02641279       0.00000000 </v>
     <v>      -0.00000616       0.05283615       0.00000000 </v>
     <v>       0.00000000       0.00000000       0.05000000 </v>
    </varray>
   </crystal>
   <varray name="positions" >
    <v>       0.51183018       0.94503257       0.52111922 </v>
    <v>       0.57781042       0.13495054       0.54472743 </v>
    <v>       0.42502615       0.48203947       0.52075141 </v>
    <v>       0.54878070       0.41513625       0.54355780 </v>
    <v>       0.04823287       0.56822475       0.52041221 </v>
    <v>       0.85847496       0.44359127       0.54534022 </v>
    <v>       0.47718347       0.04891744       0.48865042 </v>
    <v>       0.41526190       0.86240551       0.45714419 </v>
    <v>       0.56361164       0.51625751       0.48828947 </v>
    <v>       0.43886550       0.57881451       0.45729495 </v>
    <v>       0.94486039       0.42947664       0.48876923 </v>
    <v>       0.13111065       0.55513241       0.45562181 </v>
    <v>       0.35060236       0.61522833       0.43902412 </v>
    <v>       0.27830708       0.59384037       0.43852227 </v>
    <v>       0.25578952       0.64354450       0.43861005 </v>
    <v>       0.30653272       0.71568169       0.43854078 </v>
    <v>       0.40034304       0.68727787       0.43896883 </v>
    <v>       0.36804226       0.55680390       0.44489163 </v>
    <v>       0.17977554       0.62603709       0.44424909 </v>
    <v>       0.63803505       0.38048646       0.56339136 </v>
    <v>       0.71066719       0.40330609       0.56387623 </v>
    <v>       0.73450867       0.35462700       0.56395572 </v>
    <v>       0.68482703       0.28219299       0.56443172 </v>
    <v>       0.58931446       0.30815341       0.56393609 </v>
    <v>       0.61882333       0.43778721       0.56014301 </v>
    <v>       0.81108791       0.37354881       0.56112871 </v>
    <v>       0.53363579       0.06390323       0.52680203 </v>
    <v>       0.54982866       0.01099513       0.54520355 </v>
    <v>       0.60663949       0.02456025       0.59482738 </v>
    <v>       0.52201239       0.45964940       0.52599984 </v>
    <v>       0.45293760       0.44374060       0.54451079 </v>
    <v>       0.40984592       0.38704709       0.59413451 </v>
    <v>       0.92960083       0.47067094       0.52697062 </v>
    <v>       0.98227891       0.53990764       0.54494864 </v>
    <v>       0.96840794       0.58295669       0.59449285 </v>
    <v>       0.37878309       0.73799154       0.43909528 </v>
    <v>       0.43732712       0.81365731       0.44514041 </v>
    <v>       0.61229576       0.25853054       0.56395950 </v>
    <v>       0.55492077       0.18215574       0.56111926 </v>
    <v>       0.43864343       0.98308815       0.46717165 </v>
    <v>       0.45733663       0.93100854       0.48175411 </v>
    <v>       0.53631316       0.55505256       0.46709646 </v>
    <v>       0.46550301       0.53657552       0.48163405 </v>
    <v>       0.01069588       0.45728519       0.46666665 </v>
    <v>       0.06250824       0.52814712       0.48083826 </v>
    <v>       0.49989454       0.83006125       0.44142679 </v>
    <v>       0.32213809       0.49440140       0.44065502 </v>
    <v>       0.16300053       0.67186172       0.44079829 </v>
    <v>       0.49262388       0.16402485       0.57157087 </v>
    <v>       0.66280018       0.49993758       0.57053651 </v>
    <v>       0.82920137       0.32936427       0.57114161 </v>
    <v>       0.62810550       0.98369370       0.60652781 </v>
    <v>       0.34771436       0.36622233       0.60646202 </v>
    <v>       0.00902626       0.64524355       0.60605653 </v>
    <v>       0.28549905       0.75178796       0.43966460 </v>
    <v>       0.45748768       0.70819909       0.44042945 </v>
    <v>       0.24219427       0.53683422       0.43973438 </v>
    <v>       0.70678107       0.24684091       0.56534194 </v>
    <v>       0.53199945       0.28637462       0.56453410 </v>
    <v>       0.74599203       0.46049322       0.56429846 </v>
    <v>       0.62805337       0.07562117       0.62266306 </v>
    <v>       0.63070693       0.15350696       0.54361773 </v>
    <v>       0.43951490       0.36515336       0.62142275 </v>
    <v>       0.51443658       0.36241072       0.54225427 </v>
    <v>       0.91729054       0.55320093       0.62240240 </v>
    <v>       0.83981011       0.47781301       0.54458987 </v>
    <v>       0.39190158       0.97064943       0.43695845 </v>
    <v>       0.36343656       0.84674493       0.44960260 </v>
    <v>       0.57068263       0.60185068       0.43715821 </v>
    <v>       0.47490871       0.63054040       0.44995382 </v>
    <v>       0.02333470       0.42333607       0.43621543 </v>
    <v>       0.14705654       0.51933892       0.44745826 </v>
   </varray>
  </structure>
  <varray name="forces" >
   <v>      -0.00119314      -0.00261270      -0.00228206 </v>
   <v>      -0.00452443       0.00628235      -0.00623943 </v>
   <v>      -0.00083133       0.00405027      -0.00492824 </v>
   <v>      -0.00163316       0.00074118       0.00015303 </v>
   <v>       0.00159225       0.00210227       0.00076218 </v>
   <v>      -0.00173243       0.00317318       0.00008682 </v>
   <v>       0.00178464      -0.00089299       0.00454986 </v>
   <v>      -0.00964395      -0.00304138      -0.00132536 </v>
   <v>       0.00278309      -0.00254625       0.00079347 </v>
   <v>       0.00062991       0.00248708       0.00203724 </v>
   <v>       0.00259304       0.00106483       0.00186483 </v>
   <v>       0.00329159       0.00318960      -0.00069111 </v>
   <v>      -0.00336341       0.00014841       0.00354441 </v>
   <v>      -0.00181553      -0.00332646       0.00000938 </v>
   <v>       0.00002584       0.00123402       0.00106974 </v>
   <v>       0.00300695      -0.00246356       0.00189743 </v>
   <v>       0.00182903      -0.00384343       0.00204310 </v>
   <v>       0.00000620       0.00180883      -0.00047051 </v>
   <v>       0.00392767      -0.00254606       0.00335396 </v>
   <v>      -0.00160532      -0.00280815       0.00174847 </v>
   <v>       0.00385407       0.00020542      -0.00192984 </v>
   <v>       0.00010531      -0.00063679      -0.00036899 </v>
   <v>       0.00204695       0.00103853      -0.00070609 </v>
   <v>       0.00049373      -0.00163524      -0.00198298 </v>
   <v>      -0.00047089      -0.00307758      -0.00069521 </v>
   <v>      -0.00050161      -0.00403143       0.00242771 </v>
   <v>       0.00020606       0.00144811      -0.00570277 </v>
   <v>      -0.00153546      -0.00164787      -0.00258780 </v>
   <v>       0.00328361      -0.00113294      -0.00158929 </v>
   <v>       0.00008227       0.00098481      -0.00162778 </v>
   <v>       0.00507057      -0.00492977       0.00366130 </v>
   <v>      -0.00001436       0.00185668      -0.00341848 </v>
   <v>      -0.00412825      -0.00266490      -0.00093485 </v>
   <v>       0.00087670       0.00010257       0.00047140 </v>
   <v>      -0.00014281      -0.00097435      -0.00077400 </v>
   <v>      -0.00054035      -0.00256980      -0.00006773 </v>
   <v>       0.00420261       0.00316500       0.00237637 </v>
   <v>      -0.00162125      -0.00015374      -0.00094587 </v>
   <v>      -0.00251074      -0.00279616      -0.00052192 </v>
   <v>      -0.00147547      -0.00413969      -0.00268013 </v>
   <v>       0.00424342       0.00310108       0.00446134 </v>
   <v>       0.00188917       0.00724083      -0.00083528 </v>
   <v>       0.00024912      -0.00612800       0.00133298 </v>
   <v>      -0.00190111       0.00214167      -0.00168739 </v>
   <v>      -0.00206771      -0.00369692       0.00146489 </v>
   <v>      -0.00738631       0.00010339       0.00223324 </v>
   <v>       0.00199389       0.00231026       0.00535576 </v>
   <v>      -0.00348393       0.00586769      -0.00324894 </v>
   <v>       0.00169488       0.00351589      -0.00342516 </v>
   <v>      -0.00312666       0.00552675       0.00222905 </v>
   <v>       0.00003167      -0.00115165      -0.00138632 </v>
   <v>      -0.00201024       0.00235358      -0.00260923 </v>
   <v>      -0.00001642      -0.00144727      -0.00051324 </v>
   <v>       0.00173144      -0.00406607       0.00090585 </v>
   <v>       0.00007811       0.00057242       0.00205262 </v>
   <v>      -0.00046983       0.00057328       0.00164102 </v>
   <v>       0.00236317       0.00289727       0.00136357 </v>
   <v>      -0.00249627       0.00009133      -0.00009570 </v>
   <v>       0.00184854       0.00000377      -0.00187622 </v>
   <v>       0.00121104       0.00055494       0.00047697 </v>
   <v>      -0.00138792       0.00534951      -0.00180058 </v>
   <v>       0.00019819       0.00098343      -0.00224717 </v>
   <v>      -0.00119715      -0.00253337      -0.00111538 </v>
   <v>      -0.00063025       0.00115886      -0.00007075 </v>
   <v>       0.00007402       0.00091528       0.00024710 </v>
   <v>       0.00133592      -0.00085013      -0.00080396 </v>
   <v>       0.00196802       0.00293865      -0.00222607 </v>
   <v>       0.00541500       0.00044699       0.00016768 </v>
   <v>      -0.00007774      -0.00325294       0.00224696 </v>
   <v>      -0.00252715      -0.00299730       0.00248306 </v>
   <v>       0.00204481      -0.00480012       0.00096537 </v>
   <v>      -0.00199996       0.00166501       0.00393371 </v>
  </varray>
  <varray name="stress" >
   <v>       0.02353041      -0.00015980       0.00744066 </v>
   <v>      -0.00015981       0.03904886       0.00626663 </v>
   <v>       0.00744066       0.00626663      -0.27527098 </v>
  </varray>
  <energy>
   <i name="e_fr_energy">   -521.24287311 </i>
   <i name="e_wo_entrp">   -521.24287311 </i>
   <i name="e_0_energy">     -0.00000000 </i>
  </energy>
  <time name="totalsc"> 1690.33 1709.41</time>
  <eigenvalues>
   <array>
    <dimension dim="1">band</dimension>
    <dimension dim="2">kpoint</dimension>
    <dimension dim="3">spin</dimension>
    <field>eigene</field>
    <field>occ</field>
    <set>
     <set comment="spin 1">
      <set comment="kpoint 1">
       <r>  -26.4796    1.0000 </r>
       <r>  -26.4661    1.0000 </r>
       <r>  -26.4642    1.0000 </r>
       <r>  -26.4013    1.0000 </r>
       <r>  -26.3867    1.0000 </r>
       <r>  -26.3858    1.0000 </r>
       <r>  -26.0900    1.0000 </r>
       <r>  -26.0881    1.0000 </r>
       <r>  -26.0878    1.0000 </r>
       <r>  -25.2713    1.0000 </r>
       <r>  -25.2685    1.0000 </r>
       <r>  -25.2663    1.0000 </r>
       <r>  -24.2419    1.0000 </r>
       <r>  -24.2398    1.0000 </r>
       <r>  -24.2343    1.0000 </r>
       <r>  -23.4038    1.0000 </r>
       <r>  -23.3948    1.0000 </r>
       <r>  -23.3923    1.0000 </r>
       <r>  -22.8138    1.0000 </r>
       <r>  -22.7906    1.0000 </r>
       <r>  -22.7882    1.0000 </r>
       <r>  -22.2269    1.0000 </r>
       <r>  -22.1447    1.0000 </r>
       <r>  -20.1437    1.0000 </r>
       <r>  -20.1421    1.0000 </r>
       <r>  -19.7557    1.0000 </r>
       <r>  -19.7552    1.0000 </r>
       <r>  -19.6693    1.0000 </r>
       <r>  -19.1884    1.0000 </r>
       <r>  -19.1874    1.0000 </r>
       <r>  -17.7770    1.0000 </r>
       <r>  -17.7187    1.0000 </r>
       <r>  -17.7156    1.0000 </r>
       <r>  -17.5002    1.0000 </r>
       <r>  -17.4406    1.0000 </r>
       <r>  -17.4382    1.0000 </r>
       <r>  -16.5404    1.0000 </r>
       <r>  -16.5392    1.0000 </r>
       <r>  -16.1186    1.0000 </r>
       <r>  -15.9017    1.0000 </r>
       <r>  -15.9013    1.0000 </r>
       <r>  -15.2867    1.0000 </r>
       <r>  -15.2842    1.0000 </r>
       <r>  -15.2562    1.0000 </r>
       <r>  -15.0992    1.0000 </r>
       <r>  -15.0497    1.0000 </r>
       <r>  -15.0492    1.0000 </r>
       <r>  -14.7491    1.0000 </r>
       <r>  -14.4263    1.0000 </r>
       <r>  -14.4185    1.0000 </r>
       <r>  -14.1961    1.0000 </r>
       <r>  -14.0436    1.0000 </r>
       <r>  -14.0409    1.0000 </r>
       <r>  -13.5971    1.0000 </r>
       <r>  -13.5349    1.0000 </r>
       <r>  -13.5326    1.0000 </r>
       <r>  -13.3513    1.0000 </r>
       <r>  -13.1206    1.0000 </r>
       <r>  -13.0549    1.0000 </r>
       <r>  -13.0462    1.0000 </r>
       <r>  -12.4938    1.0000 </r>
       <r>  -12.3612    1.0000 </r>
       <r>  -11.9098    1.0000 </r>
       <r>  -11.9074    1.0000 </r>
       <r>  -11.8514    1.0000 </r>
       <r>  -11.8159    1.0000 </r>
       <r>  -11.8135    1.0000 </r>
       <r>  -11.7384    1.0000 </r>
       <r>  -11.5227    1.0000 </r>
       <r>  -11.5193    1.0000 </r>
       <r>  -11.4309    1.0000 </r>
       <r>  -11.3534    1.0000 </r>
       <r>  -11.2873    1.0000 </r>
       <r>  -11.2855    1.0000 </r>
       <r>  -11.1700    1.0000 </r>
       <r>  -10.9819    1.0000 </r>
       <r>  -10.9789    1.0000 </r>
       <r>  -10.8787    1.0000 </r>
       <r>  -10.7209    1.0000 </r>
       <r>  -10.7051    1.0000 </r>
       <r>  -10.7031    1.0000 </r>
       <r>  -10.5007    1.0000 </r>
       <r>  -10.4989    1.0000 </r>
       <r>  -10.3586    1.0000 </r>
       <r>  -10.3577    1.0000 </r>
       <r>  -10.3239    1.0000 </r>
       <r>  -10.3232    1.0000 </r>
       <r>  -10.2985    1.0000 </r>
       <r>  -10.2501    1.0000 </r>
       <r>  -10.2209    1.0000 </r>
       <r>  -10.2190    1.0000 </r>
       <r>  -10.1740    1.0000 </r>
       <r>   -9.6925    1.0000 </r>
       <r>   -9.6623    1.0000 </r>
       <r>   -9.6613    1.0000 </r>
       <r>   -9.5604    1.0000 </r>
       <r>   -9.3443    1.0000 </r>
       <r>   -9.3423    1.0000 </r>
       <r>   -9.2381    1.0000 </r>
       <r>   -9.2363    1.0000 </r>
       <r>   -9.1597    1.0000 </r>
       <r>   -8.8611    1.0000 </r>
       <r>   -8.8536    1.0000 </r>
       <r>   -8.6372    1.0000 </r>
       <r>   -7.9525    1.0000 </r>
       <r>   -7.9484    1.0000 </r>
       <r>   -7.9076    1.0000 </r>
       <r>   -7.4732    1.0000 </r>
       <r>   -7.4713    1.0000 </r>
       <r>   -7.4171    1.0000 </r>
       <r>   -7.3012    1.0000 </r>
       <r>   -7.2946    1.0000 </r>
       <r>   -7.2551    1.0000 </r>
       <r>   -7.0982    1.0000 </r>
       <r>   -7.0964    1.0000 </r>
       <r>   -6.9872    1.0000 </r>
       <r>   -6.9862    1.0000 </r>
       <r>   -6.7781    1.0000 </r>
       <r>   -6.7263    1.0000 </r>
       <r>   -6.7252    1.0000 </r>
       <r>   -6.3913    1.0000 </r>
       <r>   -6.2058    1.0000 </r>
       <r>   -6.2039    1.0000 </r>
       <r>   -6.1041    1.0000 </r>
       <r>   -6.0209    1.0000 </r>
       <r>   -6.0047    1.0000 </r>
       <r>   -5.9952    1.0000 </r>
       <r>   -5.9505    1.0000 </r>
       <r>   -5.9497    1.0000 </r>
       <r>   -5.5597    1.0000 </r>
       <r>   -5.5247    1.0000 </r>
       <r>   -5.5226    1.0000 </r>
       <r>   -3.3770    0.0000 </r>
       <r>   -3.3761    0.0000 </r>
       <r>   -3.3638    0.0000 </r>
       <r>   -3.0737    0.0000 </r>
       <r>   -3.0707    0.0000 </r>
       <r>   -2.7828    0.0000 </r>
       <r>   -2.7811    0.0000 </r>
       <r>   -2.5974    0.0000 </r>
       <r>   -1.9720    0.0000 </r>
       <r>   -1.9664    0.0000 </r>
       <r>   -1.6469    0.0000 </r>
       <r>   -1.2390    0.0000 </r>
       <r>   -0.8948    0.0000 </r>
       <r>   -0.8920    0.0000 </r>
       <r>   -0.7453    0.0000 </r>
       <r>   -0.5788    0.0000 </r>
       <r>   -0.5718    0.0000 </r>
       <r>   -0.3610    0.0000 </r>
       <r>   -0.3579    0.0000 </r>
       <r>   -0.2300    0.0000 </r>
       <r>   -0.2274    0.0000 </r>
       <r>    0.2226    0.0000 </r>
       <r>    0.2857    0.0000 </r>
       <r>    0.2927    0.0000 </r>
       <r>    0.4013    0.0000 </r>
       <r>    0.4157    0.0000 </r>
       <r>    0.4212    0.0000 </r>
       <r>    0.5132    0.0000 </r>
       <r>    0.5171    0.0000 </r>
       <r>    0.5599    0.0000 </r>
       <r>    0.5627    0.0000 </r>
       <r>    0.5815    0.0000 </r>
       <r>    0.6462    0.0000 </r>
       <r>    0.6481    0.0000 </r>
       <r>    0.7902    0.0000 </r>
       <r>    0.7929    0.0000 </r>
       <r>    0.8687    0.0000 </r>
       <r>    0.8702    0.0000 </r>
       <r>    0.8772    0.0000 </r>
       <r>    0.9688    0.0000 </r>
       <r>    1.0490    0.0000 </r>
       <r>    1.0784    0.0000 </r>
       <r>    1.0809    0.0000 </r>
       <r>    1.0818    0.0000 </r>
      </set>
      <set comment="kpoint 2">
       <r>  -26.4796    1.0000 </r>
       <r>  -26.4661    1.0000 </r>
       <r>  -26.4642    1.0000 </r>
       <r>  -26.4013    1.0000 </r>
       <r>  -26.3867    1.0000 </r>
       <r>  -26.3858    1.0000 </r>
       <r>  -26.0900    1.0000 </r>
       <r>  -26.0881    1.0000 </r>
       <r>  -26.0878    1.0000 </r>
       <r>  -25.2713    1.0000 </r>
       <r>  -25.2685    1.0000 </r>
       <r>  -25.2663    1.0000 </r>
       <r>  -24.2418    1.0000 </r>
       <r>  -24.2398    1.0000 </r>
       <r>  -24.2343    1.0000 </r>
       <r>  -23.4038    1.0000 </r>
       <r>  -23.3948    1.0000 </r>
       <r>  -23.3923    1.0000 </r>
       <r>  -22.8138    1.0000 </r>
       <r>  -22.7906    1.0000 </r>
       <r>  -22.7882    1.0000 </r>
       <r>  -22.2269    1.0000 </r>
       <r>  -22.1447    1.0000 </r>
       <r>  -20.1436    1.0000 </r>
       <r>  -20.1419    1.0000 </r>
       <r>  -19.7587    1.0000 </r>
       <r>  -19.7556    1.0000 </r>
       <r>  -19.6658    1.0000 </r>
       <r>  -19.1884    1.0000 </r>
       <r>  -19.1879    1.0000 </r>
       <r>  -17.7769    1.0000 </r>
       <r>  -17.7187    1.0000 </r>
       <r>  -17.7156    1.0000 </r>
       <r>  -17.5001    1.0000 </r>
       <r>  -17.4406    1.0000 </r>
       <r>  -17.4383    1.0000 </r>
       <r>  -16.5404    1.0000 </r>
       <r>  -16.5389    1.0000 </r>
       <r>  -16.1207    1.0000 </r>
       <r>  -15.9014    1.0000 </r>
       <r>  -15.8994    1.0000 </r>
       <r>  -15.2873    1.0000 </r>
       <r>  -15.2842    1.0000 </r>
       <r>  -15.2562    1.0000 </r>
       <r>  -15.1022    1.0000 </r>
       <r>  -15.0493    1.0000 </r>
       <r>  -15.0462    1.0000 </r>
       <r>  -14.7492    1.0000 </r>
       <r>  -14.4263    1.0000 </r>
       <r>  -14.4186    1.0000 </r>
       <r>  -14.1962    1.0000 </r>
       <r>  -14.0436    1.0000 </r>
       <r>  -14.0408    1.0000 </r>
       <r>  -13.5973    1.0000 </r>
       <r>  -13.5347    1.0000 </r>
       <r>  -13.5324    1.0000 </r>
       <r>  -13.3512    1.0000 </r>
       <r>  -13.1207    1.0000 </r>
       <r>  -13.0549    1.0000 </r>
       <r>  -13.0464    1.0000 </r>
       <r>  -12.4938    1.0000 </r>
       <r>  -12.3612    1.0000 </r>
       <r>  -11.9099    1.0000 </r>
       <r>  -11.9074    1.0000 </r>
       <r>  -11.8515    1.0000 </r>
       <r>  -11.8157    1.0000 </r>
       <r>  -11.8135    1.0000 </r>
       <r>  -11.7384    1.0000 </r>
       <r>  -11.5226    1.0000 </r>
       <r>  -11.5192    1.0000 </r>
       <r>  -11.4310    1.0000 </r>
       <r>  -11.3533    1.0000 </r>
       <r>  -11.2875    1.0000 </r>
       <r>  -11.2855    1.0000 </r>
       <r>  -11.1697    1.0000 </r>
       <r>  -10.9819    1.0000 </r>
       <r>  -10.9789    1.0000 </r>
       <r>  -10.8790    1.0000 </r>
       <r>  -10.7214    1.0000 </r>
       <r>  -10.7045    1.0000 </r>
       <r>  -10.7028    1.0000 </r>
       <r>  -10.5007    1.0000 </r>
       <r>  -10.4989    1.0000 </r>
       <r>  -10.3586    1.0000 </r>
       <r>  -10.3577    1.0000 </r>
       <r>  -10.3239    1.0000 </r>
       <r>  -10.3232    1.0000 </r>
       <r>  -10.2985    1.0000 </r>
       <r>  -10.2504    1.0000 </r>
       <r>  -10.2209    1.0000 </r>
       <r>  -10.2188    1.0000 </r>
       <r>  -10.1740    1.0000 </r>
       <r>   -9.6925    1.0000 </r>
       <r>   -9.6623    1.0000 </r>
       <r>   -9.6614    1.0000 </r>
       <r>   -9.5598    1.0000 </r>
       <r>   -9.3443    1.0000 </r>
       <r>   -9.3424    1.0000 </r>
       <r>   -9.2381    1.0000 </r>
       <r>   -9.2363    1.0000 </r>
       <r>   -9.1603    1.0000 </r>
       <r>   -8.8605    1.0000 </r>
       <r>   -8.8536    1.0000 </r>
       <r>   -8.6374    1.0000 </r>
       <r>   -7.9525    1.0000 </r>
       <r>   -7.9484    1.0000 </r>
       <r>   -7.9076    1.0000 </r>
       <r>   -7.4731    1.0000 </r>
       <r>   -7.4712    1.0000 </r>
       <r>   -7.4171    1.0000 </r>
       <r>   -7.3012    1.0000 </r>
       <r>   -7.2946    1.0000 </r>
       <r>   -7.2553    1.0000 </r>
       <r>   -7.0981    1.0000 </r>
       <r>   -7.0963    1.0000 </r>
       <r>   -6.9872    1.0000 </r>
       <r>   -6.9862    1.0000 </r>
       <r>   -6.7780    1.0000 </r>
       <r>   -6.7263    1.0000 </r>
       <r>   -6.7253    1.0000 </r>
       <r>   -6.3911    1.0000 </r>
       <r>   -6.2064    1.0000 </r>
       <r>   -6.2039    1.0000 </r>
       <r>   -6.1036    1.0000 </r>
       <r>   -6.0209    1.0000 </r>
       <r>   -6.0047    1.0000 </r>
       <r>   -5.9952    1.0000 </r>
       <r>   -5.9506    1.0000 </r>
       <r>   -5.9497    1.0000 </r>
       <r>   -5.5597    1.0000 </r>
       <r>   -5.5247    1.0000 </r>
       <r>   -5.5226    1.0000 </r>
       <r>   -3.3770    0.0000 </r>
       <r>   -3.3761    0.0000 </r>
       <r>   -3.3638    0.0000 </r>
       <r>   -3.0735    0.0000 </r>
       <r>   -3.0707    0.0000 </r>
       <r>   -2.7842    0.0000 </r>
       <r>   -2.7812    0.0000 </r>
       <r>   -2.5956    0.0000 </r>
       <r>   -1.9720    0.0000 </r>
       <r>   -1.9679    0.0000 </r>
       <r>   -1.6456    0.0000 </r>
       <r>   -1.2393    0.0000 </r>
       <r>   -0.8948    0.0000 </r>
       <r>   -0.8920    0.0000 </r>
       <r>   -0.7451    0.0000 </r>
       <r>   -0.5790    0.0000 </r>
       <r>   -0.5720    0.0000 </r>
       <r>   -0.3609    0.0000 </r>
       <r>   -0.3578    0.0000 </r>
       <r>   -0.2300    0.0000 </r>
       <r>   -0.2274    0.0000 </r>
       <r>    0.2227    0.0000 </r>
       <r>    0.2858    0.0000 </r>
       <r>    0.2928    0.0000 </r>
       <r>    0.4013    0.0000 </r>
       <r>    0.4157    0.0000 </r>
       <r>    0.4211    0.0000 </r>
       <r>    0.5133    0.0000 </r>
       <r>    0.5171    0.0000 </r>
       <r>    0.5600    0.0000 </r>
       <r>    0.5624    0.0000 </r>
       <r>    0.5819    0.0000 </r>
       <r>    0.6463    0.0000 </r>
       <r>    0.6480    0.0000 </r>
       <r>    0.7903    0.0000 </r>
       <r>    0.7918    0.0000 </r>
       <r>    0.8663    0.0000 </r>
       <r>    0.8698    0.0000 </r>
       <r>    0.8794    0.0000 </r>
       <r>    0.9697    0.0000 </r>
       <r>    1.0487    0.0000 </r>
       <r>    1.0739    0.0000 </r>
       <r>    1.0828    0.0000 </r>
       <r>    1.0855    0.0000 </r>
      </set>
      <set comment="kpoint 3">
       <r>  -26.4796    1.0000 </r>
       <r>  -26.4661    1.0000 </r>
       <r>  -26.4642    1.0000 </r>
       <r>  -26.4013    1.0000 </r>
       <r>  -26.3867    1.0000 </r>
       <r>  -26.3858    1.0000 </r>
       <r>  -26.0900    1.0000 </r>
       <r>  -26.0881    1.0000 </r>
       <r>  -26.0878    1.0000 </r>
       <r>  -25.2713    1.0000 </r>
       <r>  -25.2685    1.0000 </r>
       <r>  -25.2663    1.0000 </r>
       <r>  -24.2418    1.0000 </r>
       <r>  -24.2398    1.0000 </r>
       <r>  -24.2343    1.0000 </r>
       <r>  -23.4038    1.0000 </r>
       <r>  -23.3949    1.0000 </r>
       <r>  -23.3923    1.0000 </r>
       <r>  -22.8137    1.0000 </r>
       <r>  -22.7906    1.0000 </r>
       <r>  -22.7882    1.0000 </r>
       <r>  -22.2269    1.0000 </r>
       <r>  -22.1447    1.0000 </r>
       <r>  -20.1433    1.0000 </r>
       <r>  -20.1413    1.0000 </r>
       <r>  -19.7675    1.0000 </r>
       <r>  -19.7556    1.0000 </r>
       <r>  -19.6565    1.0000 </r>
       <r>  -19.1894    1.0000 </r>
       <r>  -19.1883    1.0000 </r>
       <r>  -17.7766    1.0000 </r>
       <r>  -17.7188    1.0000 </r>
       <r>  -17.7156    1.0000 </r>
       <r>  -17.4999    1.0000 </r>
       <r>  -17.4408    1.0000 </r>
       <r>  -17.4384    1.0000 </r>
       <r>  -16.5403    1.0000 </r>
       <r>  -16.5379    1.0000 </r>
       <r>  -16.1268    1.0000 </r>
       <r>  -15.9014    1.0000 </r>
       <r>  -15.8928    1.0000 </r>
       <r>  -15.2894    1.0000 </r>
       <r>  -15.2842    1.0000 </r>
       <r>  -15.2560    1.0000 </r>
       <r>  -15.1095    1.0000 </r>
       <r>  -15.0494    1.0000 </r>
       <r>  -15.0377    1.0000 </r>
       <r>  -14.7496    1.0000 </r>
       <r>  -14.4263    1.0000 </r>
       <r>  -14.4191    1.0000 </r>
       <r>  -14.1965    1.0000 </r>
       <r>  -14.0435    1.0000 </r>
       <r>  -14.0406    1.0000 </r>
       <r>  -13.5978    1.0000 </r>
       <r>  -13.5344    1.0000 </r>
       <r>  -13.5317    1.0000 </r>
       <r>  -13.3511    1.0000 </r>
       <r>  -13.1207    1.0000 </r>
       <r>  -13.0549    1.0000 </r>
       <r>  -13.0468    1.0000 </r>
       <r>  -12.4936    1.0000 </r>
       <r>  -12.3613    1.0000 </r>
       <r>  -11.9099    1.0000 </r>
       <r>  -11.9075    1.0000 </r>
       <r>  -11.8518    1.0000 </r>
       <r>  -11.8153    1.0000 </r>
       <r>  -11.8134    1.0000 </r>
       <r>  -11.7385    1.0000 </r>
       <r>  -11.5224    1.0000 </r>
       <r>  -11.5191    1.0000 </r>
       <r>  -11.4315    1.0000 </r>
       <r>  -11.3532    1.0000 </r>
       <r>  -11.2880    1.0000 </r>
       <r>  -11.2855    1.0000 </r>
       <r>  -11.1689    1.0000 </r>
       <r>  -10.9819    1.0000 </r>
       <r>  -10.9790    1.0000 </r>
       <r>  -10.8799    1.0000 </r>
       <r>  -10.7227    1.0000 </r>
       <r>  -10.7038    1.0000 </r>
       <r>  -10.7010    1.0000 </r>
       <r>  -10.5008    1.0000 </r>
       <r>  -10.4989    1.0000 </r>
       <r>  -10.3588    1.0000 </r>
       <r>  -10.3579    1.0000 </r>
       <r>  -10.3239    1.0000 </r>
       <r>  -10.3234    1.0000 </r>
       <r>  -10.2984    1.0000 </r>
       <r>  -10.2512    1.0000 </r>
       <r>  -10.2209    1.0000 </r>
       <r>  -10.2183    1.0000 </r>
       <r>  -10.1739    1.0000 </r>
       <r>   -9.6925    1.0000 </r>
       <r>   -9.6627    1.0000 </r>
       <r>   -9.6616    1.0000 </r>
       <r>   -9.5581    1.0000 </r>
       <r>   -9.3445    1.0000 </r>
       <r>   -9.3426    1.0000 </r>
       <r>   -9.2381    1.0000 </r>
       <r>   -9.2364    1.0000 </r>
       <r>   -9.1618    1.0000 </r>
       <r>   -8.8589    1.0000 </r>
       <r>   -8.8535    1.0000 </r>
       <r>   -8.6380    1.0000 </r>
       <r>   -7.9523    1.0000 </r>
       <r>   -7.9484    1.0000 </r>
       <r>   -7.9079    1.0000 </r>
       <r>   -7.4731    1.0000 </r>
       <r>   -7.4708    1.0000 </r>
       <r>   -7.4173    1.0000 </r>
       <r>   -7.3012    1.0000 </r>
       <r>   -7.2947    1.0000 </r>
       <r>   -7.2556    1.0000 </r>
       <r>   -7.0978    1.0000 </r>
       <r>   -7.0960    1.0000 </r>
       <r>   -6.9874    1.0000 </r>
       <r>   -6.9863    1.0000 </r>
       <r>   -6.7778    1.0000 </r>
       <r>   -6.7264    1.0000 </r>
       <r>   -6.7255    1.0000 </r>
       <r>   -6.3905    1.0000 </r>
       <r>   -6.2080    1.0000 </r>
       <r>   -6.2040    1.0000 </r>
       <r>   -6.1022    1.0000 </r>
       <r>   -6.0209    1.0000 </r>
       <r>   -6.0047    1.0000 </r>
       <r>   -5.9953    1.0000 </r>
       <r>   -5.9507    1.0000 </r>
       <r>   -5.9498    1.0000 </r>
       <r>   -5.5595    1.0000 </r>
       <r>   -5.5248    1.0000 </r>
       <r>   -5.5227    1.0000 </r>
       <r>   -3.3770    0.0000 </r>
       <r>   -3.3760    0.0000 </r>
       <r>   -3.3638    0.0000 </r>
       <r>   -3.0728    0.0000 </r>
       <r>   -3.0707    0.0000 </r>
       <r>   -2.7883    0.0000 </r>
       <r>   -2.7812    0.0000 </r>
       <r>   -2.5907    0.0000 </r>
       <r>   -1.9724    0.0000 </r>
       <r>   -1.9720    0.0000 </r>
       <r>   -1.6419    0.0000 </r>
       <r>   -1.2399    0.0000 </r>
       <r>   -0.8948    0.0000 </r>
       <r>   -0.8923    0.0000 </r>
       <r>   -0.7447    0.0000 </r>
       <r>   -0.5794    0.0000 </r>
       <r>   -0.5726    0.0000 </r>
       <r>   -0.3608    0.0000 </r>
       <r>   -0.3574    0.0000 </r>
       <r>   -0.2301    0.0000 </r>
       <r>   -0.2272    0.0000 </r>
       <r>    0.2230    0.0000 </r>
       <r>    0.2861    0.0000 </r>
       <r>    0.2931    0.0000 </r>
       <r>    0.4011    0.0000 </r>
       <r>    0.4155    0.0000 </r>
       <r>    0.4210    0.0000 </r>
       <r>    0.5134    0.0000 </r>
       <r>    0.5172    0.0000 </r>
       <r>    0.5601    0.0000 </r>
       <r>    0.5617    0.0000 </r>
       <r>    0.5829    0.0000 </r>
       <r>    0.6465    0.0000 </r>
       <r>    0.6478    0.0000 </r>
       <r>    0.7885    0.0000 </r>
       <r>    0.7906    0.0000 </r>
       <r>    0.8619    0.0000 </r>
       <r>    0.8687    0.0000 </r>
       <r>    0.8834    0.0000 </r>
       <r>    0.9720    0.0000 </r>
       <r>    1.0478    0.0000 </r>
       <r>    1.0686    0.0000 </r>
       <r>    1.0854    0.0000 </r>
       <r>    1.0914    0.0000 </r>
      </set>
      <set comment="kpoint 4">
       <r>  -26.4796    1.0000 </r>
       <r>  -26.4661    1.0000 </r>
       <r>  -26.4643    1.0000 </r>
       <r>  -26.4012    1.0000 </r>
       <r>  -26.3867    1.0000 </r>
       <r>  -26.3858    1.0000 </r>
       <r>  -26.0900    1.0000 </r>
       <r>  -26.0881    1.0000 </r>
       <r>  -26.0878    1.0000 </r>
       <r>  -25.2713    1.0000 </r>
       <r>  -25.2685    1.0000 </r>
       <r>  -25.2663    1.0000 </r>
       <r>  -24.2418    1.0000 </r>
       <r>  -24.2398    1.0000 </r>
       <r>  -24.2344    1.0000 </r>
       <r>  -23.4037    1.0000 </r>
       <r>  -23.3949    1.0000 </r>
       <r>  -23.3924    1.0000 </r>
       <r>  -22.8135    1.0000 </r>
       <r>  -22.7907    1.0000 </r>
       <r>  -22.7883    1.0000 </r>
       <r>  -22.2269    1.0000 </r>
       <r>  -22.1447    1.0000 </r>
       <r>  -20.1431    1.0000 </r>
       <r>  -20.1400    1.0000 </r>
       <r>  -19.7796    1.0000 </r>
       <r>  -19.7556    1.0000 </r>
       <r>  -19.6437    1.0000 </r>
       <r>  -19.1918    1.0000 </r>
       <r>  -19.1883    1.0000 </r>
       <r>  -17.7761    1.0000 </r>
       <r>  -17.7189    1.0000 </r>
       <r>  -17.7156    1.0000 </r>
       <r>  -17.4994    1.0000 </r>
       <r>  -17.4410    1.0000 </r>
       <r>  -17.4385    1.0000 </r>
       <r>  -16.5403    1.0000 </r>
       <r>  -16.5361    1.0000 </r>
       <r>  -16.1363    1.0000 </r>
       <r>  -15.9015    1.0000 </r>
       <r>  -15.8825    1.0000 </r>
       <r>  -15.2930    1.0000 </r>
       <r>  -15.2840    1.0000 </r>
       <r>  -15.2559    1.0000 </r>
       <r>  -15.1185    1.0000 </r>
       <r>  -15.0495    1.0000 </r>
       <r>  -15.0267    1.0000 </r>
       <r>  -14.7502    1.0000 </r>
       <r>  -14.4264    1.0000 </r>
       <r>  -14.4198    1.0000 </r>
       <r>  -14.1971    1.0000 </r>
       <r>  -14.0434    1.0000 </r>
       <r>  -14.0401    1.0000 </r>
       <r>  -13.5986    1.0000 </r>
       <r>  -13.5342    1.0000 </r>
       <r>  -13.5305    1.0000 </r>
       <r>  -13.3508    1.0000 </r>
       <r>  -13.1209    1.0000 </r>
       <r>  -13.0550    1.0000 </r>
       <r>  -13.0474    1.0000 </r>
       <r>  -12.4934    1.0000 </r>
       <r>  -12.3614    1.0000 </r>
       <r>  -11.9100    1.0000 </r>
       <r>  -11.9076    1.0000 </r>
       <r>  -11.8523    1.0000 </r>
       <r>  -11.8145    1.0000 </r>
       <r>  -11.8133    1.0000 </r>
       <r>  -11.7386    1.0000 </r>
       <r>  -11.5219    1.0000 </r>
       <r>  -11.5189    1.0000 </r>
       <r>  -11.4323    1.0000 </r>
       <r>  -11.3530    1.0000 </r>
       <r>  -11.2889    1.0000 </r>
       <r>  -11.2855    1.0000 </r>
       <r>  -11.1675    1.0000 </r>
       <r>  -10.9819    1.0000 </r>
       <r>  -10.9792    1.0000 </r>
       <r>  -10.8813    1.0000 </r>
       <r>  -10.7244    1.0000 </r>
       <r>  -10.7037    1.0000 </r>
       <r>  -10.6974    1.0000 </r>
       <r>  -10.5009    1.0000 </r>
       <r>  -10.4989    1.0000 </r>
       <r>  -10.3591    1.0000 </r>
       <r>  -10.3581    1.0000 </r>
       <r>  -10.3240    1.0000 </r>
       <r>  -10.3235    1.0000 </r>
       <r>  -10.2983    1.0000 </r>
       <r>  -10.2525    1.0000 </r>
       <r>  -10.2209    1.0000 </r>
       <r>  -10.2176    1.0000 </r>
       <r>  -10.1739    1.0000 </r>
       <r>   -9.6925    1.0000 </r>
       <r>   -9.6634    1.0000 </r>
       <r>   -9.6617    1.0000 </r>
       <r>   -9.5553    1.0000 </r>
       <r>   -9.3448    1.0000 </r>
       <r>   -9.3428    1.0000 </r>
       <r>   -9.2381    1.0000 </r>
       <r>   -9.2366    1.0000 </r>
       <r>   -9.1644    1.0000 </r>
       <r>   -8.8565    1.0000 </r>
       <r>   -8.8534    1.0000 </r>
       <r>   -8.6389    1.0000 </r>
       <r>   -7.9521    1.0000 </r>
       <r>   -7.9484    1.0000 </r>
       <r>   -7.9083    1.0000 </r>
       <r>   -7.4730    1.0000 </r>
       <r>   -7.4701    1.0000 </r>
       <r>   -7.4175    1.0000 </r>
       <r>   -7.3013    1.0000 </r>
       <r>   -7.2949    1.0000 </r>
       <r>   -7.2562    1.0000 </r>
       <r>   -7.0973    1.0000 </r>
       <r>   -7.0954    1.0000 </r>
       <r>   -6.9878    1.0000 </r>
       <r>   -6.9865    1.0000 </r>
       <r>   -6.7774    1.0000 </r>
       <r>   -6.7265    1.0000 </r>
       <r>   -6.7258    1.0000 </r>
       <r>   -6.3895    1.0000 </r>
       <r>   -6.2106    1.0000 </r>
       <r>   -6.2040    1.0000 </r>
       <r>   -6.0999    1.0000 </r>
       <r>   -6.0208    1.0000 </r>
       <r>   -6.0046    1.0000 </r>
       <r>   -5.9955    1.0000 </r>
       <r>   -5.9509    1.0000 </r>
       <r>   -5.9500    1.0000 </r>
       <r>   -5.5592    1.0000 </r>
       <r>   -5.5249    1.0000 </r>
       <r>   -5.5229    1.0000 </r>
       <r>   -3.3770    0.0000 </r>
       <r>   -3.3760    0.0000 </r>
       <r>   -3.3639    0.0000 </r>
       <r>   -3.0718    0.0000 </r>
       <r>   -3.0705    0.0000 </r>
       <r>   -2.7946    0.0000 </r>
       <r>   -2.7812    0.0000 </r>
       <r>   -2.5828    0.0000 </r>
       <r>   -1.9796    0.0000 </r>
       <r>   -1.9720    0.0000 </r>
       <r>   -1.6358    0.0000 </r>
       <r>   -1.2410    0.0000 </r>
       <r>   -0.8948    0.0000 </r>
       <r>   -0.8927    0.0000 </r>
       <r>   -0.7440    0.0000 </r>
       <r>   -0.5802    0.0000 </r>
       <r>   -0.5737    0.0000 </r>
       <r>   -0.3608    0.0000 </r>
       <r>   -0.3565    0.0000 </r>
       <r>   -0.2302    0.0000 </r>
       <r>   -0.2269    0.0000 </r>
       <r>    0.2233    0.0000 </r>
       <r>    0.2865    0.0000 </r>
       <r>    0.2937    0.0000 </r>
       <r>    0.4008    0.0000 </r>
       <r>    0.4152    0.0000 </r>
       <r>    0.4210    0.0000 </r>
       <r>    0.5136    0.0000 </r>
       <r>    0.5172    0.0000 </r>
       <r>    0.5602    0.0000 </r>
       <r>    0.5608    0.0000 </r>
       <r>    0.5845    0.0000 </r>
       <r>    0.6469    0.0000 </r>
       <r>    0.6473    0.0000 </r>
       <r>    0.7834    0.0000 </r>
       <r>    0.7909    0.0000 </r>
       <r>    0.8569    0.0000 </r>
       <r>    0.8669    0.0000 </r>
       <r>    0.8877    0.0000 </r>
       <r>    0.9754    0.0000 </r>
       <r>    1.0463    0.0000 </r>
       <r>    1.0635    0.0000 </r>
       <r>    1.0890    0.0000 </r>
       <r>    1.0980    0.0000 </r>
      </set>
      <set comment="kpoint 5">
       <r>  -26.4796    1.0000 </r>
       <r>  -26.4661    1.0000 </r>
       <r>  -26.4643    1.0000 </r>
       <r>  -26.4012    1.0000 </r>
       <r>  -26.3868    1.0000 </r>
       <r>  -26.3858    1.0000 </r>
       <r>  -26.0900    1.0000 </r>
       <r>  -26.0881    1.0000 </r>
       <r>  -26.0878    1.0000 </r>
       <r>  -25.2713    1.0000 </r>
       <r>  -25.2685    1.0000 </r>
       <r>  -25.2663    1.0000 </r>
       <r>  -24.2418    1.0000 </r>
       <r>  -24.2398    1.0000 </r>
       <r>  -24.2344    1.0000 </r>
       <r>  -23.4036    1.0000 </r>
       <r>  -23.3950    1.0000 </r>
       <r>  -23.3924    1.0000 </r>
       <r>  -22.8132    1.0000 </r>
       <r>  -22.7909    1.0000 </r>
       <r>  -22.7884    1.0000 </r>
       <r>  -22.2269    1.0000 </r>
       <r>  -22.1447    1.0000 </r>
       <r>  -20.1431    1.0000 </r>
       <r>  -20.1380    1.0000 </r>
       <r>  -19.7933    1.0000 </r>
       <r>  -19.7556    1.0000 </r>
       <r>  -19.6291    1.0000 </r>
       <r>  -19.1951    1.0000 </r>
       <r>  -19.1883    1.0000 </r>
       <r>  -17.7754    1.0000 </r>
       <r>  -17.7191    1.0000 </r>
       <r>  -17.7157    1.0000 </r>
       <r>  -17.4988    1.0000 </r>
       <r>  -17.4414    1.0000 </r>
       <r>  -17.4387    1.0000 </r>
       <r>  -16.5402    1.0000 </r>
       <r>  -16.5337    1.0000 </r>
       <r>  -16.1482    1.0000 </r>
       <r>  -15.9017    1.0000 </r>
       <r>  -15.8694    1.0000 </r>
       <r>  -15.2982    1.0000 </r>
       <r>  -15.2838    1.0000 </r>
       <r>  -15.2556    1.0000 </r>
       <r>  -15.1277    1.0000 </r>
       <r>  -15.0497    1.0000 </r>
       <r>  -15.0146    1.0000 </r>
       <r>  -14.7511    1.0000 </r>
       <r>  -14.4265    1.0000 </r>
       <r>  -14.4209    1.0000 </r>
       <r>  -14.1979    1.0000 </r>
       <r>  -14.0433    1.0000 </r>
       <r>  -14.0396    1.0000 </r>
       <r>  -13.5996    1.0000 </r>
       <r>  -13.5340    1.0000 </r>
       <r>  -13.5286    1.0000 </r>
       <r>  -13.3505    1.0000 </r>
       <r>  -13.1211    1.0000 </r>
       <r>  -13.0550    1.0000 </r>
       <r>  -13.0483    1.0000 </r>
       <r>  -12.4931    1.0000 </r>
       <r>  -12.3615    1.0000 </r>
       <r>  -11.9101    1.0000 </r>
       <r>  -11.9077    1.0000 </r>
       <r>  -11.8529    1.0000 </r>
       <r>  -11.8137    1.0000 </r>
       <r>  -11.8130    1.0000 </r>
       <r>  -11.7388    1.0000 </r>
       <r>  -11.5214    1.0000 </r>
       <r>  -11.5186    1.0000 </r>
       <r>  -11.4333    1.0000 </r>
       <r>  -11.3528    1.0000 </r>
       <r>  -11.2901    1.0000 </r>
       <r>  -11.2856    1.0000 </r>
       <r>  -11.1657    1.0000 </r>
       <r>  -10.9819    1.0000 </r>
       <r>  -10.9796    1.0000 </r>
       <r>  -10.8831    1.0000 </r>
       <r>  -10.7265    1.0000 </r>
       <r>  -10.7036    1.0000 </r>
       <r>  -10.6926    1.0000 </r>
       <r>  -10.5011    1.0000 </r>
       <r>  -10.4989    1.0000 </r>
       <r>  -10.3596    1.0000 </r>
       <r>  -10.3582    1.0000 </r>
       <r>  -10.3241    1.0000 </r>
       <r>  -10.3236    1.0000 </r>
       <r>  -10.2981    1.0000 </r>
       <r>  -10.2542    1.0000 </r>
       <r>  -10.2210    1.0000 </r>
       <r>  -10.2167    1.0000 </r>
       <r>  -10.1738    1.0000 </r>
       <r>   -9.6924    1.0000 </r>
       <r>   -9.6644    1.0000 </r>
       <r>   -9.6617    1.0000 </r>
       <r>   -9.5515    1.0000 </r>
       <r>   -9.3453    1.0000 </r>
       <r>   -9.3431    1.0000 </r>
       <r>   -9.2381    1.0000 </r>
       <r>   -9.2368    1.0000 </r>
       <r>   -9.1678    1.0000 </r>
       <r>   -8.8542    1.0000 </r>
       <r>   -8.8520    1.0000 </r>
       <r>   -8.6403    1.0000 </r>
       <r>   -7.9518    1.0000 </r>
       <r>   -7.9484    1.0000 </r>
       <r>   -7.9088    1.0000 </r>
       <r>   -7.4730    1.0000 </r>
       <r>   -7.4693    1.0000 </r>
       <r>   -7.4178    1.0000 </r>
[...]
       <r>   -27.8623     0.0000     0.0000 </r>
       <r>   -27.7609     0.0000     0.0000 </r>
       <r>   -27.6595     0.0000     0.0000 </r>
       <r>   -27.5581     0.0000     0.0000 </r>
       <r>   -27.4567     0.0000     0.0000 </r>
       <r>   -27.3553     0.0000     0.0000 </r>
       <r>   -27.2539     0.0000     0.0000 </r>
       <r>   -27.1525     0.0000     0.0000 </r>
       <r>   -27.0512     0.0000     0.0000 </r>
       <r>   -26.9498     0.0000     0.0000 </r>
       <r>   -26.8484     0.0000     0.0000 </r>
       <r>   -26.7470     0.0000     0.0000 </r>
       <r>   -26.6456     0.0000     0.0000 </r>
       <r>   -26.5442     0.0000     0.0000 </r>
       <r>   -26.4428    59.1481     5.9974 </r>
       <r>   -26.3414    59.1739    12.0000 </r>
       <r>   -26.2400     0.0000    12.0000 </r>
       <r>   -26.1386     0.0000    12.0000 </r>
       <r>   -26.0372    59.1739    18.0000 </r>
       <r>   -25.9358     0.0000    18.0000 </r>
       <r>   -25.8344     0.0000    18.0000 </r>
       <r>   -25.7330     0.0000    18.0000 </r>
       <r>   -25.6316     0.0000    18.0000 </r>
       <r>   -25.5302     0.0000    18.0000 </r>
       <r>   -25.4288     0.0000    18.0000 </r>
       <r>   -25.3274     0.0000    18.0000 </r>
       <r>   -25.2260    59.1739    24.0000 </r>
       <r>   -25.1246     0.0000    24.0000 </r>
       <r>   -25.0232     0.0000    24.0000 </r>
       <r>   -24.9218     0.0000    24.0000 </r>
       <r>   -24.8204     0.0000    24.0000 </r>
       <r>   -24.7190     0.0000    24.0000 </r>
       <r>   -24.6176     0.0000    24.0000 </r>
       <r>   -24.5162     0.0000    24.0000 </r>
       <r>   -24.4149     0.0000    24.0000 </r>
       <r>   -24.3135     0.0000    24.0000 </r>
       <r>   -24.2121    59.1605    29.9986 </r>
       <r>   -24.1107     0.0000    30.0000 </r>
       <r>   -24.0093     0.0000    30.0000 </r>
       <r>   -23.9079     0.0000    30.0000 </r>
       <r>   -23.8065     0.0000    30.0000 </r>
       <r>   -23.7051     0.0000    30.0000 </r>
       <r>   -23.6037     0.0000    30.0000 </r>
       <r>   -23.5023     0.0000    30.0000 </r>
       <r>   -23.4009    18.7262    31.8988 </r>
       <r>   -23.2995     0.0000    36.0000 </r>
       <r>   -23.1981     0.0000    36.0000 </r>
       <r>   -23.0967     0.0000    36.0000 </r>
       <r>   -22.9953     0.0000    36.0000 </r>
       <r>   -22.8939     0.0000    36.0000 </r>
       <r>   -22.7925    38.0476    39.8579 </r>
       <r>   -22.6911     0.0000    42.0000 </r>
       <r>   -22.5897     0.0000    42.0000 </r>
       <r>   -22.4883     0.0000    42.0000 </r>
       <r>   -22.3869     0.0000    42.0000 </r>
       <r>   -22.2855     0.0000    42.0000 </r>
       <r>   -22.1841    19.7246    44.0000 </r>
       <r>   -22.0827    19.7246    46.0000 </r>
       <r>   -21.9813     0.0000    46.0000 </r>
       <r>   -21.8800     0.0000    46.0000 </r>
       <r>   -21.7786     0.0000    46.0000 </r>
       <r>   -21.6772     0.0000    46.0000 </r>
       <r>   -21.5758     0.0000    46.0000 </r>
       <r>   -21.4744     0.0000    46.0000 </r>
       <r>   -21.3730     0.0000    46.0000 </r>
       <r>   -21.2716     0.0000    46.0000 </r>
       <r>   -21.1702     0.0000    46.0000 </r>
       <r>   -21.0688     0.0000    46.0000 </r>
       <r>   -20.9674     0.0000    46.0000 </r>
       <r>   -20.8660     0.0000    46.0000 </r>
       <r>   -20.7646     0.0000    46.0000 </r>
       <r>   -20.6632     0.0000    46.0000 </r>
       <r>   -20.5618     0.0000    46.0000 </r>
       <r>   -20.4604     0.0000    46.0000 </r>
       <r>   -20.3590     0.0000    46.0000 </r>
       <r>   -20.2576     0.0000    46.0000 </r>
       <r>   -20.1562     0.6359    46.0645 </r>
       <r>   -20.0548    13.9787    49.7841 </r>
       <r>   -19.9534     8.9516    50.9077 </r>
       <r>   -19.8520     3.9697    51.4692 </r>
       <r>   -19.7506    18.9227    53.4854 </r>
       <r>   -19.6492     1.8993    54.1926 </r>
       <r>   -19.5478     2.8609    54.5901 </r>
       <r>   -19.4464     3.3999    55.0114 </r>
       <r>   -19.3450     7.9896    56.1435 </r>
       <r>   -19.2437     9.2297    57.2692 </r>
       <r>   -19.1423    25.3132    60.0000 </r>
       <r>   -19.0409     0.0000    60.0000 </r>
       <r>   -18.9395     0.0000    60.0000 </r>
       <r>   -18.8381     0.0000    60.0000 </r>
       <r>   -18.7367     0.0000    60.0000 </r>
       <r>   -18.6353     0.0000    60.0000 </r>
       <r>   -18.5339     0.0000    60.0000 </r>
       <r>   -18.4325     0.0000    60.0000 </r>
       <r>   -18.3311     0.0000    60.0000 </r>
       <r>   -18.2297     0.0000    60.0000 </r>
       <r>   -18.1283     0.0000    60.0000 </r>
       <r>   -18.0269     0.0000    60.0000 </r>
       <r>   -17.9255     0.0000    60.0000 </r>
       <r>   -17.8241     0.0000    60.0000 </r>
       <r>   -17.7227    33.4600    63.3927 </r>
       <r>   -17.6213     0.0000    66.0000 </r>
       <r>   -17.5199     0.0081    66.0008 </r>
       <r>   -17.4185    56.1738    71.9960 </r>
       <r>   -17.3171     0.0000    72.0000 </r>
       <r>   -17.2157     0.0000    72.0000 </r>
       <r>   -17.1143     0.0000    72.0000 </r>
       <r>   -17.0129     0.0000    72.0000 </r>
       <r>   -16.9115     0.0000    72.0000 </r>
       <r>   -16.8101     0.0000    72.0000 </r>
       <r>   -16.7087     0.0000    72.0000 </r>
       <r>   -16.6074     0.0000    72.0000 </r>
       <r>   -16.5060    26.1201    74.6485 </r>
       <r>   -16.4046    11.0307    75.9851 </r>
       <r>   -16.3032     9.0460    77.0839 </r>
       <r>   -16.2018     2.9111    77.4952 </r>
       <r>   -16.1004     4.2692    77.9996 </r>
       <r>   -15.9990     0.0000    78.0000 </r>
       <r>   -15.8976    16.8696    79.7105 </r>
       <r>   -15.7962     2.7746    80.5480 </r>
       <r>   -15.6948     2.4092    80.8776 </r>
       <r>   -15.5934     7.0078    81.6772 </r>
       <r>   -15.4920     5.8088    82.3890 </r>
       <r>   -15.3906     5.9606    83.2044 </r>
       <r>   -15.2892     7.7944    84.0903 </r>
       <r>   -15.1878    23.4111    88.3738 </r>
       <r>   -15.0864     6.2150    89.9969 </r>
       <r>   -14.9850    23.9406    92.4275 </r>
       <r>   -14.8836     5.2252    93.0632 </r>
       <r>   -14.7822    10.6020    94.7417 </r>
       <r>   -14.6808     6.2454    96.0000 </r>
       <r>   -14.5794     0.0000    96.0000 </r>
       <r>   -14.4780     0.0000    96.0000 </r>
       <r>   -14.3766    39.4492   100.0000 </r>
       <r>   -14.2752     0.0000   100.0000 </r>
       <r>   -14.1738    19.7224   101.9998 </r>
       <r>   -14.0724     0.0002   102.0000 </r>
       <r>   -13.9711    39.4491   106.0000 </r>
       <r>   -13.8697     0.0000   106.0000 </r>
       <r>   -13.7683     0.0000   106.0000 </r>
       <r>   -13.6669     0.0000   106.0000 </r>
       <r>   -13.5655    19.7247   108.0000 </r>
       <r>   -13.4641    39.4489   112.0000 </r>
       <r>   -13.3627     0.3394   112.0344 </r>
       <r>   -13.2613     0.0000   114.0000 </r>
       <r>   -13.1599     0.0000   114.0000 </r>
       <r>   -13.0585    37.9729   117.8503 </r>
       <r>   -12.9571     0.0000   120.0000 </r>
       <r>   -12.8557     0.0000   120.0000 </r>
       <r>   -12.7543     0.0000   120.0000 </r>
       <r>   -12.6529     0.0000   120.0000 </r>
       <r>   -12.5515     0.0000   120.0000 </r>
       <r>   -12.4501    19.7246   122.0000 </r>
       <r>   -12.3487    19.2582   123.9527 </r>
       <r>   -12.2473     0.0000   124.0000 </r>
       <r>   -12.1459     0.0000   124.0000 </r>
       <r>   -12.0445     0.0000   124.0000 </r>
       <r>   -11.9431     0.0002   124.0000 </r>
       <r>   -11.8417    58.8127   129.9634 </r>
       <r>   -11.7403    50.3229   135.1026 </r>
       <r>   -11.6389     0.0000   136.0000 </r>
       <r>   -11.5375     0.1179   136.0120 </r>
       <r>   -11.4362    31.2758   141.6380 </r>
       <r>   -11.3348    17.1554   143.7395 </r>
       <r>   -11.2334    29.2574   148.0000 </r>
       <r>   -11.1320     9.4430   148.9575 </r>
       <r>   -11.0306     0.4101   150.0416 </r>
       <r>   -10.9292    29.9152   154.0000 </r>
       <r>   -10.8278    19.7246   156.0000 </r>
       <r>   -10.7264    17.1976   157.7438 </r>
       <r>   -10.6250    22.3931   160.8718 </r>
       <r>   -10.5236    14.5900   162.7128 </r>
       <r>   -10.4222    23.6621   166.0000 </r>
       <r>   -10.3208    68.2957   172.9249 </r>
       <r>   -10.2194    54.1802   179.4942 </r>
       <r>   -10.1180    19.7246   184.0000 </r>
       <r>   -10.0166     0.0000   184.0000 </r>
       <r>    -9.9152     0.0000   184.0000 </r>
       <r>    -9.8138     0.0000   184.0000 </r>
       <r>    -9.7124     0.0358   184.0036 </r>
       <r>    -9.6110    39.4492   190.0000 </r>
       <r>    -9.5096     6.7679   190.6862 </r>
       <r>    -9.4082    12.0513   192.0886 </r>
       <r>    -9.3068    33.2019   196.0000 </r>
       <r>    -9.2054    50.6840   201.1392 </r>
       <r>    -9.1040     4.9309   202.0000 </r>
       <r>    -9.0026     0.0000   202.0000 </r>
       <r>    -8.9012     0.0000   202.0000 </r>
       <r>    -8.7999    27.8509   204.8240 </r>
       <r>    -8.6985     9.6584   206.0462 </r>
       <r>    -8.5971    10.1907   208.0000 </r>
       <r>    -8.4957     0.0000   208.0000 </r>
       <r>    -8.3943     0.0000   208.0000 </r>
       <r>    -8.2929     0.0000   208.0000 </r>
       <r>    -8.1915     0.0000   208.0000 </r>
       <r>    -8.0901     0.0000   208.0000 </r>
       <r>    -7.9887     0.0000   208.0000 </r>
       <r>    -7.8873    59.1672   213.9993 </r>
       <r>    -7.7859     0.0000   214.0000 </r>
       <r>    -7.6845     0.0000   214.0000 </r>
       <r>    -7.5831     0.0000   214.0000 </r>
       <r>    -7.4817     1.6423   214.1665 </r>
       <r>    -7.3803    33.2020   220.0000 </r>
       <r>    -7.2789    42.6066   224.3201 </r>
       <r>    -7.1775     2.9570   226.0000 </r>
       <r>    -7.0761    32.8636   229.3322 </r>
       <r>    -6.9747    38.8882   233.9431 </r>
       <r>    -6.8733     0.0000   234.0000 </r>
       <r>    -6.7719     6.3480   234.6437 </r>
       <r>    -6.6705    39.4473   240.0000 </r>
       <r>    -6.5691     0.0000   240.0000 </r>
       <r>    -6.4677     0.0000   240.0000 </r>
       <r>    -6.3663     7.5821   240.7688 </r>
       <r>    -6.2649    16.0272   243.1252 </r>
       <r>    -6.1636    25.9706   246.0000 </r>
       <r>    -6.0622     8.1542   246.8268 </r>
       <r>    -5.9608    72.5173   255.0198 </r>
       <r>    -5.8594     0.0000   258.0000 </r>
       <r>    -5.7580     0.0000   258.0000 </r>
       <r>    -5.6566     0.0000   258.0000 </r>
       <r>    -5.5552     6.5650   258.6657 </r>
       <r>    -5.4538    29.2564   264.0000 </r>
       <r>    -5.3524     0.0000   264.0000 </r>
       <r>    -5.2510     0.0000   264.0000 </r>
       <r>    -5.1496     0.0000   264.0000 </r>
       <r>    -5.0482     0.0000   264.0000 </r>
       <r>    -4.9468     0.0000   264.0000 </r>
       <r>    -4.8454     0.0000   264.0000 </r>
       <r>    -4.7440     0.0000   264.0000 </r>
       <r>    -4.6426     0.0000   264.0000 </r>
       <r>    -4.5412     0.0000   264.0000 </r>
       <r>    -4.4398     0.0000   264.0000 </r>
       <r>    -4.3384     0.0000   264.0000 </r>
       <r>    -4.2370     0.0000   264.0000 </r>
       <r>    -4.1356     0.0000   264.0000 </r>
       <r>    -4.0342     0.0000   264.0000 </r>
       <r>    -3.9328     0.0000   264.0000 </r>
       <r>    -3.8314     0.0000   264.0000 </r>
       <r>    -3.7300     0.0000   264.0000 </r>
       <r>    -3.6287     0.0000   264.0000 </r>
       <r>    -3.5273     0.0000   264.0000 </r>
       <r>    -3.4259     0.0000   264.0000 </r>
       <r>    -3.3245    59.1739   270.0000 </r>
       <r>    -3.2231     0.0000   270.0000 </r>
       <r>    -3.1217     0.0000   270.0000 </r>
       <r>    -3.0203    30.7167   273.1146 </r>
       <r>    -2.9189    12.8162   274.9996 </r>
       <r>    -2.8175     4.8231   275.6224 </r>
       <r>    -2.7161    22.0256   278.0000 </r>
       <r>    -2.6147     0.0069   278.0007 </r>
       <r>    -2.5133     4.0644   278.5455 </r>
       <r>    -2.4119     2.9400   278.9314 </r>
       <r>    -2.3105     7.9219   279.8366 </r>
       <r>    -2.2091     5.2844   280.5358 </r>
       <r>    -2.1077     3.0158   281.2391 </r>
       <r>    -2.0063     2.9610   281.6336 </r>
       <r>    -1.9049    22.0258   284.0000 </r>
       <r>    -1.8035     0.0000   284.0000 </r>
       <r>    -1.7021     0.0000   284.0000 </r>
       <r>    -1.6007     4.3911   284.4452 </r>
       <r>    -1.4993     5.3907   285.1133 </r>
       <r>    -1.3979     1.9713   286.0000 </r>
       <r>    -1.2965     1.4836   286.1504 </r>
       <r>    -1.1951     9.2042   288.0000 </r>
       <r>    -1.0937     0.0000   288.0000 </r>
       <r>    -0.9924     0.0000   288.0000 </r>
       <r>    -0.8910    30.5008   291.0927 </r>
       <r>    -0.7896     0.0000   292.0000 </r>
       <r>    -0.6882    19.7246   294.0000 </r>
       <r>    -0.5868    28.1903   296.8584 </r>
       <r>    -0.4854     0.0000   298.0000 </r>
       <r>    -0.3840     0.1189   298.0121 </r>
       <r>    -0.2826    25.9668   302.0000 </r>
       <r>    -0.1812    39.4492   306.0000 </r>
       <r>    -0.0798     0.0000   306.0000 </r>
       <r>     0.0216     0.0000   306.0000 </r>
       <r>     0.1230     0.0000   306.0000 </r>
       <r>     0.2244     3.8388   306.3892 </r>
       <r>     0.3258    39.2001   311.9747 </r>
       <r>     0.4272    46.4867   316.7136 </r>
       <r>     0.5286    39.4773   322.0028 </r>
       <r>     0.6300    57.4610   329.1598 </r>
       <r>     0.7314    27.1365   333.3850 </r>
       <r>     0.8328    29.9799   337.0733 </r>
       <r>     0.9342    34.5210   341.5005 </r>
       <r>     1.0356    34.9355   345.5423 </r>
       <r>     1.1370    41.3220   351.0901 </r>
       <r>     1.2384     0.6575   352.0000 </r>
       <r>     1.3398     0.0000   352.0000 </r>
       <r>     1.4412     0.0000   352.0000 </r>
       <r>     1.5426     0.0000   352.0000 </r>
       <r>     1.6439     0.0000   352.0000 </r>
       <r>     1.7453     0.0000   352.0000 </r>
       <r>     1.8467     0.0000   352.0000 </r>
       <r>     1.9481     0.0000   352.0000 </r>
       <r>     2.0495     0.0000   352.0000 </r>
       <r>     2.1509     0.0000   352.0000 </r>
       <r>     2.2523     0.0000   352.0000 </r>
       <r>     2.3537     0.0000   352.0000 </r>
       <r>     2.4551     0.0000   352.0000 </r>
       <r>     2.5565     0.0000   352.0000 </r>
      </set>
     </set>
    </array>
   </total>
  </dos>
 </calculation>
 <structure name="finalpos" >
  <crystal>
   <varray name="basis" >
    <v>      21.78516938       0.00254130       0.00000000 </v>
    <v>     -10.89040693      18.92516487       0.00000000 </v>
    <v>       0.00000000       0.00000000      20.00000000 </v>
   </varray>
   <i name="volume">   8246.31195995 </i>
   <varray name="rec_basis" >
    <v>       0.04589971       0.02641279       0.00000000 </v>
    <v>      -0.00000616       0.05283615       0.00000000 </v>
    <v>       0.00000000       0.00000000       0.05000000 </v>
   </varray>
  </crystal>
  <varray name="positions" >
   <v>       0.51183018       0.94503257       0.52111922 </v>
   <v>       0.57781042       0.13495054       0.54472743 </v>
   <v>       0.42502615       0.48203947       0.52075141 </v>
   <v>       0.54878070       0.41513625       0.54355780 </v>
   <v>       0.04823287       0.56822475       0.52041221 </v>
   <v>       0.85847496       0.44359127       0.54534022 </v>
   <v>       0.47718347       0.04891744       0.48865042 </v>
   <v>       0.41526190       0.86240551       0.45714419 </v>
   <v>       0.56361164       0.51625751       0.48828947 </v>
   <v>       0.43886550       0.57881451       0.45729495 </v>
   <v>       0.94486039       0.42947664       0.48876923 </v>
   <v>       0.13111065       0.55513241       0.45562181 </v>
   <v>       0.35060236       0.61522833       0.43902412 </v>
   <v>       0.27830708       0.59384037       0.43852227 </v>
   <v>       0.25578952       0.64354450       0.43861005 </v>
   <v>       0.30653272       0.71568169       0.43854078 </v>
   <v>       0.40034304       0.68727787       0.43896883 </v>
   <v>       0.36804226       0.55680390       0.44489163 </v>
   <v>       0.17977554       0.62603709       0.44424909 </v>
   <v>       0.63803505       0.38048646       0.56339136 </v>
   <v>       0.71066719       0.40330609       0.56387623 </v>
   <v>       0.73450867       0.35462700       0.56395572 </v>
   <v>       0.68482703       0.28219299       0.56443172 </v>
   <v>       0.58931446       0.30815341       0.56393609 </v>
   <v>       0.61882333       0.43778721       0.56014301 </v>
   <v>       0.81108791       0.37354881       0.56112871 </v>
   <v>       0.53363579       0.06390323       0.52680203 </v>
   <v>       0.54982866       0.01099513       0.54520355 </v>
   <v>       0.60663949       0.02456025       0.59482738 </v>
   <v>       0.52201239       0.45964940       0.52599984 </v>
   <v>       0.45293760       0.44374060       0.54451079 </v>
   <v>       0.40984592       0.38704709       0.59413451 </v>
   <v>       0.92960083       0.47067094       0.52697062 </v>
   <v>       0.98227891       0.53990764       0.54494864 </v>
   <v>       0.96840794       0.58295669       0.59449285 </v>
   <v>       0.37878309       0.73799154       0.43909528 </v>
   <v>       0.43732712       0.81365731       0.44514041 </v>
   <v>       0.61229576       0.25853054       0.56395950 </v>
   <v>       0.55492077       0.18215574       0.56111926 </v>
   <v>       0.43864343       0.98308815       0.46717165 </v>
   <v>       0.45733663       0.93100854       0.48175411 </v>
   <v>       0.53631316       0.55505256       0.46709646 </v>
   <v>       0.46550301       0.53657552       0.48163405 </v>
   <v>       0.01069588       0.45728519       0.46666665 </v>
   <v>       0.06250824       0.52814712       0.48083826 </v>
   <v>       0.49989454       0.83006125       0.44142679 </v>
   <v>       0.32213809       0.49440140       0.44065502 </v>
   <v>       0.16300053       0.67186172       0.44079829 </v>
   <v>       0.49262388       0.16402485       0.57157087 </v>
   <v>       0.66280018       0.49993758       0.57053651 </v>
   <v>       0.82920137       0.32936427       0.57114161 </v>
   <v>       0.62810550       0.98369370       0.60652781 </v>
   <v>       0.34771436       0.36622233       0.60646202 </v>
   <v>       0.00902626       0.64524355       0.60605653 </v>
   <v>       0.28549905       0.75178796       0.43966460 </v>
   <v>       0.45748768       0.70819909       0.44042945 </v>
   <v>       0.24219427       0.53683422       0.43973438 </v>
   <v>       0.70678107       0.24684091       0.56534194 </v>
   <v>       0.53199945       0.28637462       0.56453410 </v>
   <v>       0.74599203       0.46049322       0.56429846 </v>
   <v>       0.62805337       0.07562117       0.62266306 </v>
   <v>       0.63070693       0.15350696       0.54361773 </v>
   <v>       0.43951490       0.36515336       0.62142275 </v>
   <v>       0.51443658       0.36241072       0.54225427 </v>
   <v>       0.91729054       0.55320093       0.62240240 </v>
   <v>       0.83981011       0.47781301       0.54458987 </v>
   <v>       0.39190158       0.97064943       0.43695845 </v>
   <v>       0.36343656       0.84674493       0.44960260 </v>
   <v>       0.57068263       0.60185068       0.43715821 </v>
   <v>       0.47490871       0.63054040       0.44995382 </v>
   <v>       0.02333470       0.42333607       0.43621543 </v>
   <v>       0.14705654       0.51933892       0.44745826 </v>
  </varray>
 </structure>
</modeling>
